 Gaussian 16, Revision A.03,

 --------------------------------
 # opt=CalcFc APFD/6-31G* scf=xqc
 --------------------------------

 ----------------------------------
 IZZYABADQVQHLC-UHFFFAOYSA-N_conf_0
 ----------------------------------
 Symbolic Z-matrix:
 Charge =  0 Multiplicity = 1

 SCF Done:  E(RAPFD) =  -918.868788317     A.U. after   15 cycles
 SCF Done:  E(RAPFD) =  -918.875285458     A.U. after   14 cycles
 SCF Done:  E(RAPFD) =  -918.876311131     A.U. after   15 cycles
 SCF Done:  E(RAPFD) =  -918.877180383     A.U. after   12 cycles
 SCF Done:  E(RAPFD) =  -918.877488808     A.U. after   12 cycles
 SCF Done:  E(RAPFD) =  -918.877488341     A.U. after   11 cycles
 SCF Done:  E(RAPFD) =  -918.877495817     A.U. after   11 cycles
 SCF Done:  E(RAPFD) =  -918.877496935     A.U. after    9 cycles
 SCF Done:  E(RAPFD) =  -918.877496939     A.U. after    7 cycles
 Optimization completed.
    -- Stationary point found.
 Normal termination of Gaussian 16 at Sun Jan 28 15:15:33 2024.

 ----------------------------------------------------------------------
 # freq APFD/6-31G* volume NMR pop=NPA density=current Geom=AllCheck Gu
 ess=Read
 ----------------------------------------------------------------------

 Structure from the checkpoint file:  "IZZYABADQVQHLC-UHFFFAOYSA-N_conf_0_1.chk"
 ----------------------------------
 IZZYABADQVQHLC-UHFFFAOYSA-N_conf_0
 ----------------------------------
 Charge =  0 Multiplicity = 1

 SCF Done:  E(RAPFD) =  -918.877496939     A.U. after    1 cycles

      1  O    Isotropic =   117.8003   Anisotropy =    74.6752

      2  S    Isotropic =   228.3587   Anisotropy =   313.2876

      3  C    Isotropic =    64.3142   Anisotropy =   111.3484

      4  C    Isotropic =    70.4499   Anisotropy =   170.2498

      5  C    Isotropic =    69.6287   Anisotropy =   154.4351

      6  C    Isotropic =    54.1209   Anisotropy =   193.8732

      7  C    Isotropic =   171.0768   Anisotropy =    34.9507

      8  C    Isotropic =    69.6288   Anisotropy =   154.4184

      9  C    Isotropic =    70.4470   Anisotropy =   170.2496

     10  F    Isotropic =   110.0262   Anisotropy =   340.7266

     11  O    Isotropic =   117.7969   Anisotropy =    74.6680

     12  H    Isotropic =    24.2476   Anisotropy =     7.6283

     13  H    Isotropic =    24.7489   Anisotropy =     6.4759

     14  H    Isotropic =    29.8664   Anisotropy =     7.7624

     15  H    Isotropic =    29.8674   Anisotropy =     7.7616

     16  H    Isotropic =    29.5613   Anisotropy =     8.5170

     17  H    Isotropic =    24.7491   Anisotropy =     6.4749

     18  H    Isotropic =    24.2475   Anisotropy =     7.6288

  Exact polarizability: 129.717   0.001  94.866   2.568  -0.001  48.837
 Approx polarizability: 177.963   0.001 169.802   4.793  -0.003  75.765

                      1                      2                      3
                      A                      A                      A
 Frequencies --     27.4154                44.1870                83.2312
 Red. masses --      1.1179                 3.9404                 5.3751
 Frc consts  --      0.0005                 0.0045                 0.0219
 IR Inten    --      0.4100                 0.0000                 0.2635

                      4                      5                      6
                      A                      A                      A
 Frequencies --    168.7152               196.7781               292.7587
 Red. masses --      6.3180                 5.5533                 8.1805
 Frc consts  --      0.1060                 0.1267                 0.4131
 IR Inten    --      1.2479                 0.8423                 3.0284

                      7                      8                      9
                      A                      A                      A
 Frequencies --    316.5649               347.6968               377.9301
 Red. masses --      5.2745                 5.7375                 3.9230
 Frc consts  --      0.3114                 0.4087                 0.3301
 IR Inten    --      0.0355                 3.9871                 2.6563

                     10                     11                     12
                      A                      A                      A
 Frequencies --    413.3279               463.3734               485.2574
 Red. masses --      2.9844                 5.6060                 9.7365
 Frc consts  --      0.3004                 0.7092                 1.3508
 IR Inten    --      0.0116                 0.4456                 6.9951

                     13                     14                     15
                      A                      A                      A
 Frequencies --    530.8791               557.2629               644.3647
 Red. masses --      4.4232                 8.9095                 6.9254
 Frc consts  --      0.7345                 1.6301                 1.6942
 IR Inten    --     24.4513                82.8626                 0.0309

                     16                     17                     18
                      A                      A                      A
 Frequencies --    671.5321               708.5489               802.6285
 Red. masses --      6.9109                 3.8938                 6.9969
 Frc consts  --      1.8362                 1.1518                 2.6557
 IR Inten    --     72.7666                 8.4052               184.3116

                     19                     20                     21
                      A                      A                      A
 Frequencies --    830.2874               838.2907               858.8692
 Red. masses --      1.4261                 6.4991                 1.2443
 Frc consts  --      0.5792                 2.6909                 0.5408
 IR Inten    --     11.1115                94.6618                 0.0595

                     22                     23                     24
                      A                      A                      A
 Frequencies --    977.4186               985.6603              1026.1736
 Red. masses --      1.2466                 1.3522                 1.3834
 Frc consts  --      0.7017                 0.7740                 0.8583
 IR Inten    --      0.6952                 0.0203                 0.0223

                     25                     26                     27
                      A                      A                      A
 Frequencies --   1038.8133              1072.3979              1130.2219
 Red. masses --      3.5792                 1.5764                 3.3306
 Frc consts  --      2.2757                 1.0681                 2.5067
 IR Inten    --      2.5982                15.4827                22.3804

                     28                     29                     30
                      A                      A                      A
 Frequencies --   1161.3177              1213.4595              1232.0352
 Red. masses --      1.2911                 5.4945                 1.3012
 Frc consts  --      1.0259                 4.7668                 1.1637
 IR Inten    --      6.7824               243.6977                12.5223

                     31                     32                     33
                      A                      A                      A
 Frequencies --   1255.5004              1344.6632              1383.3409
 Red. masses --      3.0219                 1.2728                 8.8167
 Frc consts  --      2.8065                 1.3559                 9.9406
 IR Inten    --      0.8329                 4.3372                13.0978

                     34                     35                     36
                      A                      A                      A
 Frequencies --   1424.9722              1439.5335              1457.4331
 Red. masses --     16.9502                 1.2529                 2.5189
 Frc consts  --     20.2786                 1.5297                 3.1524
 IR Inten    --    161.6309                 2.2208                14.2264

                     37                     38                     39
                      A                      A                      A
 Frequencies --   1515.4048              1516.0501              1552.0573
 Red. masses --      1.1286                 1.0554                 2.4105
 Frc consts  --      1.5271                 1.4292                 3.4211
 IR Inten    --     20.8028                 7.9221                 5.6909

                     40                     41                     42
                      A                      A                      A
 Frequencies --   1653.5812              1677.3160              3065.5673
 Red. masses --      6.5160                 5.8506                 1.0395
 Frc consts  --     10.4974                 9.6980                 5.7559
 IR Inten    --      1.7403                32.6742                13.9219

                     43                     44                     45
                      A                      A                      A
 Frequencies --   3134.9929              3161.5203              3211.2935
 Red. masses --      1.0974                 1.1032                 1.0898
 Frc consts  --      6.3547                 6.4967                 6.6215
 IR Inten    --     11.6815                 9.4794                10.2067

                     46                     47                     48
                      A                      A                      A
 Frequencies --   3211.7862              3244.6820              3245.1442
 Red. masses --      1.0900                 1.0932                 1.0943
 Frc consts  --      6.6250                 6.7813                 6.7897
 IR Inten    --      5.1101                 0.0266                 2.2191

 - Thermochemistry -
 -------------------
 Temperature   298.150 Kelvin.  Pressure   1.00000 Atm.
 Atom     1 has atomic number  8 and mass  15.99491

 Molecular mass:   174.01508 amu.
 Principal axes and moments of inertia in atomic units:
                           1         2         3
     Eigenvalues --   702.497213222.825003534.76576
           X            0.99999   0.00000   0.00444
           Y           -0.00000   1.00000  -0.00000
           Z           -0.00444   0.00000   0.99999
 This molecule is an asymmetric top.
 Rotational symmetry number  1.
 Warning -- assumption of classical behavior for rotation
           may cause significant error
 Rotational temperatures (Kelvin)      0.12329     0.02688     0.02450
 Rotational constants (GHZ):           2.56904     0.55999     0.51057
 Zero-point vibrational energy     346870.6 (Joules/Mol)
                                   82.90406 (Kcal/Mol)
 Warning -- explicit consideration of  14 degrees of freedom as
           vibrations may cause significant error
 Vibrational temperatures:     39.44    63.58   119.75   242.74   283.12
          (Kelvin)            421.21   455.47   500.26   543.76   594.69
                              666.69   698.18   763.82   801.78   927.10
                              966.18  1019.44  1154.80  1194.60  1206.11
                             1235.72  1406.29  1418.15  1476.43  1494.62
                             1542.94  1626.14  1670.88  1745.90  1772.62
                             1806.39  1934.67  1990.32  2050.22  2071.17
                             2096.92  2180.33  2181.26  2233.06  2379.13
                             2413.28  4410.67  4510.56  4548.72  4620.34
                             4621.04  4668.37  4669.04

 Zero-point correction=                           0.132116 (Hartree/Particle)
 Thermal correction to Energy=                    0.142281
 Thermal correction to Enthalpy=                  0.143225
 Thermal correction to Gibbs Free Energy=         0.094599
 Sum of electronic and zero-point Energies=           -918.745381
 Sum of electronic and thermal Energies=              -918.735216
 Sum of electronic and thermal Enthalpies=            -918.734272
 Sum of electronic and thermal Free Energies=         -918.782898

                     E (Thermal)             CV                S
                      KCal/Mol        Cal/Mol-Kelvin    Cal/Mol-Kelvin
 Total                   89.283             37.062            102.344
 Electronic               0.000              0.000              0.000
 Translational            0.889              2.981             41.369
 Rotational               0.889              2.981             30.460
 Vibrational             87.505             31.100             30.514
 Vibration     1          0.593              1.984              6.008
 Vibration     2          0.595              1.980              5.062
 Vibration     3          0.600              1.961              3.813
 Vibration     4          0.625              1.881              2.450
 Vibration     5          0.636              1.844              2.163
 Vibration     6          0.688              1.687              1.458
 Vibration     7          0.703              1.642              1.328
 Vibration     8          0.725              1.580              1.177
 Vibration     9          0.748              1.517              1.047
 Vibration    10          0.777              1.441              0.915
 Vibration    11          0.821              1.331              0.756
 Vibration    12          0.841              1.283              0.696
 Vibration    13          0.886              1.182              0.585
 Vibration    14          0.913              1.124              0.529

 Optimization completed.
    -- Stationary point found.
 Normal termination of Gaussian 16 at Sun Jan 28 15:18:27 2024.
 Gaussian 16:  ES64L-G16RevA.03 25-Dec-2016

 ----------------------------------------------------------------------
 # TD(NStates=10, Root=1) APFD/6-31G* volume pop=NPA density=current Ge
 om=AllCheck Guess=Read
 ----------------------------------------------------------------------

 Structure from the checkpoint file:  "IZZYABADQVQHLC-UHFFFAOYSA-N_conf_0_2.chk"
 ----------------------------------
 IZZYABADQVQHLC-UHFFFAOYSA-N_conf_0
 ----------------------------------
 Charge =  0 Multiplicity = 1

                         Standard orientation:
 ---------------------------------------------------------------------
 Center     Atomic      Atomic             Coordinates (Angstroms)
 Number     Number       Type             X           Y           Z
 ---------------------------------------------------------------------
      1          8           0        2.377574    1.267682    0.624494
      2         16           0        1.891970    0.000023    0.129397
      3          6           0        0.132832    0.000010    0.077860
      4          6           0       -0.543706   -1.217537    0.057077
      5          6           0       -1.932306   -1.205296    0.007723
      6          6           0       -2.644331    0.000010   -0.017309
      7          6           0       -4.146840   -0.000025   -0.036579
      8          6           0       -1.932320    1.205308    0.007729
      9          6           0       -0.543704    1.217544    0.057048
     10          9           0        2.211938   -0.000302   -1.449803
     11          8           0        2.377689   -1.267382    0.625020
     12          1           0        0.012101   -2.149756    0.087385
     13          1           0       -2.475112   -2.147561   -0.008457
     14          1           0       -4.542899   -0.886338   -0.542019
     15          1           0       -4.542969    0.886870   -0.540934
     16          1           0       -4.546922   -0.000678    0.985565
     17          1           0       -2.475123    2.147575   -0.008430
     18          1           0        0.012109    2.149760    0.087354
 ---------------------------------------------------------------------

 SCF Done:  E(RAPFD) =  -918.877496939     A.U. after    1 cycles

 Excitation energies and oscillator strengths:

 Excited State   1:      Singlet-A      5.3163 eV  233.21 nm  f=0.0066  <S**2>=0.000
      44 -> 46         0.56302
      45 -> 47         0.42512
 This state for optimization and/or second-order correction.
 Total Energy, E(TD-HF/TD-DFT) =  -918.682124778
 Copying the excited state density for this state as the 1-particle RhoCI density.

 Excited State   2:      Singlet-A      5.7827 eV  214.40 nm  f=0.2211  <S**2>=0.000
      44 -> 47        -0.25330
      45 -> 46         0.65635

 Excited State   3:      Singlet-A      6.4932 eV  190.95 nm  f=0.0017  <S**2>=0.000
      41 -> 46        -0.20482
      43 -> 46         0.66740

 Excited State   4:      Singlet-A      6.7502 eV  183.68 nm  f=0.0190  <S**2>=0.000
      42 -> 46         0.67918
      44 -> 47         0.16223

 Excited State   5:      Singlet-A      6.7928 eV  182.52 nm  f=0.1981  <S**2>=0.000
      41 -> 46        -0.23041
      44 -> 46        -0.39371
      45 -> 47         0.51631

 Excited State   6:      Singlet-A      6.9765 eV  177.72 nm  f=0.0693  <S**2>=0.000
      41 -> 46         0.62470
      43 -> 46         0.20061
      44 -> 46        -0.13396
      45 -> 47         0.18261

 Excited State   7:      Singlet-A      7.0458 eV  175.97 nm  f=0.6339  <S**2>=0.000
      42 -> 46        -0.15195
      44 -> 47         0.62650
      45 -> 46         0.24369
      45 -> 48        -0.10146

 Excited State   8:      Singlet-A      7.3332 eV  169.07 nm  f=0.0002  <S**2>=0.000
      43 -> 47         0.70381

 Excited State   9:      Singlet-A      7.3458 eV  168.78 nm  f=0.0003  <S**2>=0.000
      40 -> 46         0.68688
      42 -> 47         0.12329

 Excited State  10:      Singlet-A      7.4945 eV  165.43 nm  f=0.0069  <S**2>=0.000
      38 -> 47        -0.12158
      40 -> 46        -0.13102
      42 -> 47         0.67485

 The electronic state is 1-A.
 Alpha  occ. eigenvalues --  -89.23130 -24.77799 -19.21239 -19.21238 -10.27117
 Alpha  occ. eigenvalues --  -10.25816 -10.25338 -10.25337 -10.24318 -10.24317
 Alpha  occ. eigenvalues --  -10.22891  -8.20991  -6.15929  -6.15601  -6.15477
 Alpha  occ. eigenvalues --   -1.26915  -1.13264  -1.05244  -0.91318  -0.83300
 Alpha  occ. eigenvalues --   -0.79514  -0.75214  -0.68477  -0.65493  -0.62248
 Alpha  occ. eigenvalues --   -0.58496  -0.53887  -0.51761  -0.50459  -0.49495
 Alpha  occ. eigenvalues --   -0.48040  -0.46208  -0.45410  -0.44558  -0.44519
 Alpha  occ. eigenvalues --   -0.41801  -0.40499  -0.39316  -0.38380  -0.37796
 Alpha  occ. eigenvalues --   -0.34805  -0.34716  -0.33112  -0.29083  -0.28553
 Alpha virt. eigenvalues --   -0.05406  -0.03006   0.04093   0.06699   0.09461
 Alpha virt. eigenvalues --    0.11366   0.11685   0.12632   0.13819   0.13983
 Alpha virt. eigenvalues --    0.16308   0.16819   0.19211   0.19674   0.21187

 Mulliken charges:
               1
     1  O   -0.489991
     2  S    1.227834
     3  C   -0.211148
     4  C   -0.157686
     5  C   -0.193140
     6  C    0.130000
     7  C   -0.594569
     8  C   -0.193145
     9  C   -0.157695
    10  F   -0.305216
    11  O   -0.489977
    12  H    0.231011
    13  H    0.192116
    14  H    0.192345
    15  H    0.192336
    16  H    0.203789
    17  H    0.192117
    18  H    0.231018
 Sum of Mulliken charges =  -0.00000

 Dipole moment (field-independent basis, Debye):
    X=             -6.3492    Y=             -0.0004    Z=             -0.6625  Tot=              6.3837
 Quadrupole moment (field-independent basis, Debye-Ang):
   XX=            -70.3076   YY=            -65.7969   ZZ=            -72.5877
   XY=             -0.0004   XZ=             -2.3406   YZ=              0.0006

 Summary of Natural Population Analysis:

                                       Natural Population
                Natural  -----------------------------------------------
    Atom  No    Charge         Core      Valence    Rydberg      Total
 -----------------------------------------------------------------------
      O    1   -0.90799      1.99988     6.88459    0.02353     8.90799
      S    2    2.41205      9.99867     3.38111    0.20817    13.58795
      C    3   -0.37571      1.99874     4.34928    0.02770     6.37571
      C    4   -0.18721      1.99904     4.16737    0.02080     6.18721
      C    5   -0.18898      1.99907     4.17309    0.01682     6.18898
      C    6   -0.05126      1.99910     4.03643    0.01572     6.05126
      C    7   -0.72325      1.99939     4.71563    0.00823     6.72325
      C    8   -0.18896      1.99907     4.17307    0.01682     6.18896
      C    9   -0.18723      1.99904     4.16739    0.02080     6.18723
      F   10   -0.51050      1.99997     7.50078    0.00975     9.51050
      O   11   -0.90798      1.99988     6.88457    0.02353     8.90798
      H   12    0.27400      0.00000     0.72478    0.00121     0.72600
      H   13    0.24984      0.00000     0.74926    0.00091     0.75016
      H   14    0.25412      0.00000     0.74477    0.00110     0.74588
      H   15    0.25411      0.00000     0.74478    0.00110     0.74589
      H   16    0.26108      0.00000     0.73723    0.00169     0.73892
      H   17    0.24984      0.00000     0.74926    0.00091     0.75016
      H   18    0.27401      0.00000     0.72478    0.00121     0.72599
 =======================================================================
   * Total *   -0.00000     29.99186    59.60815    0.39999    90.00000

 Normal termination of Gaussian 16 at Sun Jan 28 15:22:38 2024.
