 Gaussian 16, Revision A.03,

 --------------------------------
 # opt=CalcFc APFD/6-31G* scf=xqc
 --------------------------------

 ----------------------------------
 RVBMBNJSTWFMQY-UHFFFAOYSA-N_conf_0
 ----------------------------------
 Symbolic Z-matrix:
 Charge =  0 Multiplicity = 1

 SCF Done:  E(RAPFD) =  -1159.71777039     A.U. after   15 cycles
 SCF Done:  E(RAPFD) =  -1159.72631824     A.U. after   13 cycles
 SCF Done:  E(RAPFD) =  -1159.72675847     A.U. after   14 cycles
 SCF Done:  E(RAPFD) =  -1159.72692246     A.U. after   12 cycles
 SCF Done:  E(RAPFD) =  -1159.72702909     A.U. after   11 cycles
 SCF Done:  E(RAPFD) =  -1159.72703437     A.U. after    9 cycles
 SCF Done:  E(RAPFD) =  -1159.72703448     A.U. after    8 cycles
 Optimization completed.
    -- Stationary point found.
 Normal termination of Gaussian 16 at Sun Jan 28 15:17:35 2024.

 ----------------------------------------------------------------------
 # freq APFD/6-31G* volume NMR pop=NPA density=current Geom=AllCheck Gu
 ess=Read
 ----------------------------------------------------------------------

 Structure from the checkpoint file:  "RVBMBNJSTWFMQY-UHFFFAOYSA-N_conf_0_1.chk"
 ----------------------------------
 RVBMBNJSTWFMQY-UHFFFAOYSA-N_conf_0
 ----------------------------------
 Charge =  0 Multiplicity = 1

 SCF Done:  E(RAPFD) =  -1159.72703448     A.U. after    1 cycles

      1  F    Isotropic =   117.2936   Anisotropy =   353.7273

      2  S    Isotropic =   256.0142   Anisotropy =   367.1155

      3  C    Isotropic =    49.5440   Anisotropy =    68.5319

      4  N    Isotropic =   -85.5762   Anisotropy =   419.5540

      5  N    Isotropic =   -64.9227   Anisotropy =   367.7577

      6  C    Isotropic =    43.0150   Anisotropy =    99.0770

      7  C    Isotropic =    73.6542   Anisotropy =   155.5382

      8  C    Isotropic =    72.0052   Anisotropy =   163.8063

      9  C    Isotropic =    71.3150   Anisotropy =   169.8834

     10  C    Isotropic =    68.2426   Anisotropy =   175.3317

     11  C    Isotropic =    69.1728   Anisotropy =   173.3100

     12  C    Isotropic =    66.9327   Anisotropy =   168.8953

     13  N    Isotropic =   102.7269   Anisotropy =   119.8616

     14  C    Isotropic =   162.1965   Anisotropy =    39.9315

     15  O    Isotropic =   105.2799   Anisotropy =    62.0662

     16  O    Isotropic =    96.3075   Anisotropy =    57.8994

     17  H    Isotropic =    24.7799   Anisotropy =     8.6246

     18  H    Isotropic =    24.5653   Anisotropy =     4.9167

     19  H    Isotropic =    24.4942   Anisotropy =     4.1581

     20  H    Isotropic =    24.4588   Anisotropy =     4.5089

     21  H    Isotropic =    23.8981   Anisotropy =     7.5711

     22  H    Isotropic =    28.6534   Anisotropy =     8.9283

     23  H    Isotropic =    28.5674   Anisotropy =     5.6119

     24  H    Isotropic =    27.8800   Anisotropy =     7.6774

  Exact polarizability: 202.723  -5.067 123.328  -3.505  -7.921  72.744
 Approx polarizability: 272.013  -9.969 222.734  -8.359 -11.387 122.871

                      1                      2                      3
                      A                      A                      A
 Frequencies --     37.5047                47.7922                61.1539
 Red. masses --      7.3092                 7.3497                 4.1209
 Frc consts  --      0.0061                 0.0099                 0.0091
 IR Inten    --      0.4511                 0.1139                 4.3863

                      4                      5                      6
                      A                      A                      A
 Frequencies --     88.3137               140.6739               166.3919
 Red. masses --      5.7763                 6.8983                 4.4999
 Frc consts  --      0.0265                 0.0804                 0.0734
 IR Inten    --      0.2971                 1.1669                 4.5948

                      7                      8                      9
                      A                      A                      A
 Frequencies --    183.7550               220.2141               246.1983
 Red. masses --      1.6207                 2.7680                 9.2639
 Frc consts  --      0.0322                 0.0791                 0.3308
 IR Inten    --      0.3438                 0.6018                 0.1260

                     10                     11                     12
                      A                      A                      A
 Frequencies --    291.7978               311.6760               324.0324
 Red. masses --      6.1681                 3.6304                 5.2982
 Frc consts  --      0.3094                 0.2078                 0.3278
 IR Inten    --      1.0794                 1.5095                 3.9650

                     13                     14                     15
                      A                      A                      A
 Frequencies --    381.8619               407.7885               417.5535
 Red. masses --      7.6574                 8.8793                 2.9889
 Frc consts  --      0.6579                 0.8700                 0.3070
 IR Inten    --      2.3043                 2.9019                 0.8236

                     16                     17                     18
                      A                      A                      A
 Frequencies --    453.1758               479.0137               506.2448
 Red. masses --     11.9730                 8.2041                 6.1087
 Frc consts  --      1.4487                 1.1091                 0.9224
 IR Inten    --     10.4553                 8.4879                 6.5003

                     19                     20                     21
                      A                      A                      A
 Frequencies --    573.1575               623.5454               629.6219
 Red. masses --      5.4495                12.0208                 6.5905
 Frc consts  --      1.0548                 2.7537                 1.5393
 IR Inten    --     32.6988               134.9371                 8.0315

                     22                     23                     24
                      A                      A                      A
 Frequencies --    685.3227               704.8811               713.6587
 Red. masses --     11.5107                 6.3110                 2.0974
 Frc consts  --      3.1852                 1.8475                 0.6294
 IR Inten    --      1.1690                46.3788                25.3218

                     25                     26                     27
                      A                      A                      A
 Frequencies --    732.1368               742.3982               791.1024
 Red. masses --      3.8881                 5.6317                 2.3076
 Frc consts  --      1.2279                 1.8288                 0.8509
 IR Inten    --     10.6971                22.8414                23.3463

                     28                     29                     30
                      A                      A                      A
 Frequencies --    805.1057               868.1656               945.7156
 Red. masses --     20.6881                 1.2431                 1.3705
 Frc consts  --      7.9009                 0.5520                 0.7222
 IR Inten    --    210.0700                 0.6286                 2.7038

                     31                     32                     33
                      A                      A                      A
 Frequencies --    983.5666               985.7891              1011.8096
 Red. masses --      2.6162                 2.0397                 1.2938
 Frc consts  --      1.4912                 1.1678                 0.7804
 IR Inten    --      0.9114                 1.6195                 0.0958

                     34                     35                     36
                      A                      A                      A
 Frequencies --   1020.1588              1059.0736              1096.5223
 Red. masses --      5.6701                 2.9889                 1.9877
 Frc consts  --      3.4768                 1.9752                 1.4081
 IR Inten    --      2.2080                 7.5815                 0.9940

                     37                     38                     39
                      A                      A                      A
 Frequencies --   1125.3861              1157.4662              1164.2817
 Red. masses --      1.5761                 2.3910                 1.6287
 Frc consts  --      1.1761                 1.8873                 1.3008
 IR Inten    --      5.9238                 6.7367                11.6261

                     40                     41                     42
                      A                      A                      A
 Frequencies --   1183.5741              1207.8416              1221.0669
 Red. masses --      6.0964                 1.0905                 7.0246
 Frc consts  --      5.0317                 0.9373                 6.1710
 IR Inten    --     47.7169                 0.0891               141.0518

                     43                     44                     45
                      A                      A                      A
 Frequencies --   1226.6885              1294.9378              1350.0128
 Red. masses --      1.1367                 6.4809                 1.7394
 Frc consts  --      1.0078                 6.4030                 1.8678
 IR Inten    --      5.8631                11.2542                 4.9163

                     46                     47                     48
                      A                      A                      A
 Frequencies --   1384.1731              1392.7770              1443.4351
 Red. masses --      3.2211                 5.3563                 8.0910
 Frc consts  --      3.6361                 6.1218                 9.9323
 IR Inten    --      1.9100                30.3835               190.7819

                     49                     50                     51
                      A                      A                      A
 Frequencies --   1455.9188              1477.0132              1494.2476
 Red. masses --      3.2305                 2.4859                 2.3722
 Frc consts  --      4.0346                 3.1952                 3.1207
 IR Inten    --     75.1288                11.9893                 8.5696

                     52                     53                     54
                      A                      A                      A
 Frequencies --   1518.4884              1526.3231              1537.2320
 Red. masses --      1.8934                 1.1451                 1.4717
 Frc consts  --      2.5722                 1.5717                 2.0490
 IR Inten    --     12.8807                13.6120                28.7549

                     55                     56                     57
                      A                      A                      A
 Frequencies --   1543.1258              1591.7191              1657.9869
 Red. masses --      2.4189                 4.4699                 5.8455
 Frc consts  --      3.3937                 6.6724                 9.4674
 IR Inten    --     40.8135                20.3304                 0.8529

                     58                     59                     60
                      A                      A                      A
 Frequencies --   1685.6751              3102.8688              3192.1231
 Red. masses --      5.8286                 1.0347                 1.1038
 Frc consts  --      9.7581                 5.8693                 6.6267
 IR Inten    --      2.0332                10.9338                 2.1619

                     61                     62                     63
                      A                      A                      A
 Frequencies --   3206.5720              3214.7683              3217.7065
 Red. masses --      1.0857                 1.0921                 1.1025
 Frc consts  --      6.5770                 6.6501                 6.7257
 IR Inten    --      0.7459                 1.9255                 2.1090

                     64                     65                     66
                      A                      A                      A
 Frequencies --   3224.4389              3232.9540              3241.9098
 Red. masses --      1.0929                 1.0965                 1.0959
 Frc consts  --      6.6947                 6.7524                 6.7861
 IR Inten    --     17.0056                11.9159                 3.4628

 - Thermochemistry -
 -------------------
 Temperature   298.150 Kelvin.  Pressure   1.00000 Atm.
 Atom     1 has atomic number  9 and mass  18.99840

 Molecular mass:   241.03213 amu.
 Principal axes and moments of inertia in atomic units:
                           1         2         3
     Eigenvalues --  1227.440957418.561328086.59699
           X            0.99999  -0.00314   0.00093
           Y            0.00315   0.99993  -0.01102
           Z           -0.00089   0.01103   0.99994
 This molecule is an asymmetric top.
 Rotational symmetry number  1.
 Warning -- assumption of classical behavior for rotation
           may cause significant error
 Rotational temperatures (Kelvin)      0.07056     0.01168     0.01071
 Rotational constants (GHZ):           1.47033     0.24327     0.22318
 Zero-point vibrational energy     454638.3 (Joules/Mol)
                                  108.66116 (Kcal/Mol)
 Warning -- explicit consideration of  19 degrees of freedom as
           vibrations may cause significant error
 Vibrational temperatures:     53.96    68.76    87.99   127.06   202.40
          (Kelvin)            239.40   264.38   316.84   354.22   419.83
                              448.43   466.21   549.41   586.72   600.77
                              652.02   689.19   728.37   824.65   897.14
                              905.89   986.03  1014.17  1026.80  1053.38
                             1068.15  1138.22  1158.37  1249.10  1360.67
                             1415.13  1418.33  1455.77  1467.78  1523.77
                             1577.65  1619.18  1665.34  1675.14  1702.90
                             1737.81  1756.84  1764.93  1863.13  1942.37
                             1991.52  2003.90  2076.78  2094.74  2125.09
                             2149.89  2184.77  2196.04  2211.73  2220.21
                             2290.13  2385.47  2425.31  4464.34  4592.75
                             4613.54  4625.33  4629.56  4639.25  4651.50
                             4664.39

 Zero-point correction=                           0.173163 (Hartree/Particle)
 Thermal correction to Energy=                    0.186696
 Thermal correction to Enthalpy=                  0.187640
 Thermal correction to Gibbs Free Energy=         0.131441
 Sum of electronic and zero-point Energies=          -1159.553872
 Sum of electronic and thermal Energies=             -1159.540339
 Sum of electronic and thermal Enthalpies=           -1159.539395
 Sum of electronic and thermal Free Energies=        -1159.595593

                     E (Thermal)             CV                S
                      KCal/Mol        Cal/Mol-Kelvin    Cal/Mol-Kelvin
 Total                  117.153             50.536            118.280
 Electronic               0.000              0.000              0.000
 Translational            0.889              2.981             42.340
 Rotational               0.889              2.981             32.665
 Vibrational            115.376             44.575             43.274
 Vibration     1          0.594              1.982              5.387
 Vibration     2          0.595              1.978              4.907
 Vibration     3          0.597              1.973              4.420
 Vibration     4          0.601              1.957              3.697
 Vibration     5          0.615              1.913              2.795
 Vibration     6          0.624              1.884              2.476
 Vibration     7          0.631              1.862              2.290
 Vibration     8          0.647              1.810              1.957
 Vibration     9          0.661              1.769              1.758
 Vibration    10          0.687              1.689              1.464
 Vibration    11          0.700              1.651              1.353
 Vibration    12          0.709              1.627              1.290
 Vibration    13          0.751              1.509              1.032
 Vibration    14          0.772              1.453              0.934
 Vibration    15          0.781              1.432              0.900
 Vibration    16          0.812              1.354              0.786
 Vibration    17          0.835              1.297              0.713
 Vibration    18          0.861              1.236              0.643
 Vibration    19          0.929              1.089              0.498

 Optimization completed.
    -- Stationary point found.
 Normal termination of Gaussian 16 at Sun Jan 28 15:22:14 2024.
 Gaussian 16:  ES64L-G16RevA.03 25-Dec-2016

 ----------------------------------------------------------------------
 # TD(NStates=10, Root=1) APFD/6-31G* volume pop=NPA density=current Ge
 om=AllCheck Guess=Read
 ----------------------------------------------------------------------

 Structure from the checkpoint file:  "RVBMBNJSTWFMQY-UHFFFAOYSA-N_conf_0_2.chk"
 ----------------------------------
 RVBMBNJSTWFMQY-UHFFFAOYSA-N_conf_0
 ----------------------------------
 Charge =  0 Multiplicity = 1

                         Standard orientation:
 ---------------------------------------------------------------------
 Center     Atomic      Atomic             Coordinates (Angstroms)
 Number     Number       Type             X           Y           Z
 ---------------------------------------------------------------------
      1          9           0        3.047015    1.187036   -0.992334
      2         16           0        3.056621    0.024651    0.123453
      3          6           0        1.391236   -0.502292   -0.078431
      4          7           0        1.054626   -1.729196   -0.387138
      5          7           0       -0.295891   -1.762754   -0.415476
      6          6           0       -0.747232   -0.550627   -0.129941
      7          6           0       -2.164832   -0.200026   -0.066992
      8          6           0       -2.654062    1.019715   -0.551116
      9          6           0       -4.016369    1.298920   -0.488264
     10          6           0       -4.897885    0.361965    0.048167
     11          6           0       -4.416200   -0.862579    0.512213
     12          6           0       -3.056525   -1.145921    0.455083
     13          7           0        0.299387    0.295315    0.108151
     14          6           0        0.277629    1.683231    0.539017
     15          8           0        3.959545   -0.995316   -0.327147
     16          8           0        3.197541    0.712448    1.386860
     17          1           0       -1.978532    1.736243   -1.010779
     18          1           0       -4.390589    2.244986   -0.870832
     19          1           0       -5.961331    0.582189    0.096667
     20          1           0       -5.102856   -1.598843    0.921802
     21          1           0       -2.666454   -2.096267    0.807191
     22          1           0        0.417683    2.351061   -0.314977
     23          1           0       -0.684048    1.883524    1.011197
     24          1           0        1.078954    1.844447    1.260611
 ---------------------------------------------------------------------

 SCF Done:  E(RAPFD) =  -1159.72703448     A.U. after    1 cycles

 Excitation energies and oscillator strengths:

 Excited State   1:      Singlet-A      4.9318 eV  251.40 nm  f=0.0082  <S**2>=0.000
      60 -> 63         0.56874
      60 -> 64         0.13244
      61 -> 63        -0.36412
      62 -> 63         0.11873
 This state for optimization and/or second-order correction.
 Total Energy, E(TD-HF/TD-DFT) =  -1159.54579533
 Copying the excited state density for this state as the 1-particle RhoCI density.

 Excited State   2:      Singlet-A      5.0962 eV  243.29 nm  f=0.3761  <S**2>=0.000
      61 -> 63         0.26525
      62 -> 63         0.60811
      62 -> 65        -0.19260

 Excited State   3:      Singlet-A      5.1729 eV  239.68 nm  f=0.1296  <S**2>=0.000
      60 -> 63         0.33315
      61 -> 63         0.38682
      61 -> 64        -0.11803
      62 -> 63        -0.31582
      62 -> 65        -0.34020

 Excited State   4:      Singlet-A      5.6881 eV  217.97 nm  f=0.0163  <S**2>=0.000
      60 -> 63        -0.13433
      60 -> 64         0.56389
      60 -> 67         0.11595
      61 -> 64        -0.31491
      62 -> 64         0.18961

 Excited State   5:      Singlet-A      5.8473 eV  212.04 nm  f=0.0200  <S**2>=0.000
      58 -> 63         0.17696
      59 -> 63        -0.10119
      60 -> 64        -0.14317
      61 -> 64         0.14091
      61 -> 65        -0.12154
      62 -> 64         0.62067

 Excited State   6:      Singlet-A      5.9400 eV  208.73 nm  f=0.0230  <S**2>=0.000
      60 -> 63         0.17019
      60 -> 64         0.24660
      61 -> 63         0.33639
      61 -> 64         0.35774
      62 -> 65         0.38920

 Excited State   7:      Singlet-A      6.2800 eV  197.43 nm  f=0.0684  <S**2>=0.000
      57 -> 63        -0.11925
      59 -> 63         0.63104
      61 -> 65        -0.24020

 Excited State   8:      Singlet-A      6.3533 eV  195.15 nm  f=0.0046  <S**2>=0.000
      60 -> 65         0.62374
      61 -> 65        -0.30309

 Excited State   9:      Singlet-A      6.5115 eV  190.41 nm  f=0.0730  <S**2>=0.000
      58 -> 63        -0.16015
      59 -> 65        -0.26754
      60 -> 64         0.21644
      61 -> 63        -0.10183
      61 -> 64         0.41078
      62 -> 65        -0.38690

 Excited State  10:      Singlet-A      6.5982 eV  187.91 nm  f=0.0360  <S**2>=0.000
      57 -> 63         0.27299
      57 -> 64         0.11044
      58 -> 63         0.53981
      59 -> 64         0.13213
      60 -> 65         0.13785
      61 -> 65         0.14094
      62 -> 64        -0.10756
      62 -> 67         0.12825

 The electronic state is 1-A.
 Alpha  occ. eigenvalues --  -89.25680 -24.80105 -19.23464 -19.23404 -14.48487
 Alpha  occ. eigenvalues --  -14.41707 -14.40355 -10.32188 -10.30877 -10.28524
 Alpha  occ. eigenvalues --  -10.25838 -10.24749 -10.24144 -10.24081 -10.24044
 Alpha  occ. eigenvalues --  -10.23849  -8.23462  -6.18395  -6.18055  -6.17999
 Alpha  occ. eigenvalues --   -1.29235  -1.15680  -1.12439  -1.07527  -0.98698
 Alpha  occ. eigenvalues --   -0.90891  -0.87011  -0.79885  -0.78875  -0.78300
 Alpha  occ. eigenvalues --   -0.74382  -0.68389  -0.65663  -0.63673  -0.62100
 Alpha  occ. eigenvalues --   -0.59593  -0.56495  -0.55150  -0.53493  -0.53335
 Alpha  occ. eigenvalues --   -0.52477  -0.50303  -0.48324  -0.47039  -0.46781
 Alpha  occ. eigenvalues --   -0.46178  -0.45805  -0.45585  -0.45185  -0.41070
 Alpha  occ. eigenvalues --   -0.40326  -0.39090  -0.37869  -0.37626  -0.37094
 Alpha  occ. eigenvalues --   -0.35290  -0.34956  -0.33205  -0.31863  -0.28805
 Alpha  occ. eigenvalues --   -0.28408  -0.26827
 Alpha virt. eigenvalues --   -0.05925  -0.02952  -0.02484   0.02716   0.03523
 Alpha virt. eigenvalues --    0.04940   0.07480   0.08967   0.10222   0.11802
 Alpha virt. eigenvalues --    0.12043   0.13395   0.13854   0.14687   0.15578

 Mulliken charges:
               1
     1  F   -0.311969
     2  S    1.243325
     3  C    0.167198
     4  N   -0.192345
     5  N   -0.229161
     6  C    0.453449
     7  C    0.067543
     8  C   -0.205244
     9  C   -0.173116
    10  C   -0.172936
    11  C   -0.172851
    12  C   -0.188932
    13  N   -0.496443
    14  C   -0.423522
    15  O   -0.449164
    16  O   -0.486063
    17  H    0.173394
    18  H    0.174027
    19  H    0.170615
    20  H    0.175573
    21  H    0.180989
    22  H    0.215189
    23  H    0.228798
    24  H    0.251646
 Sum of Mulliken charges =  -0.00000

 Dipole moment (field-independent basis, Debye):
    X=             -4.9758    Y=              1.8656    Z=              0.0833  Tot=              5.3147
 Quadrupole moment (field-independent basis, Debye-Ang):
   XX=           -108.2369   YY=            -92.3200   ZZ=           -100.5681
   XY=              1.5296   XZ=             -2.7355   YZ=             -3.4868

 Summary of Natural Population Analysis:

                                       Natural Population
                Natural  -----------------------------------------------
    Atom  No    Charge         Core      Valence    Rydberg      Total
 -----------------------------------------------------------------------
      F    1   -0.51313      1.99997     7.50297    0.01018     9.51313
      S    2    2.38517      9.99867     3.40322    0.21294    13.61483
      C    3   -0.05143      1.99889     4.00807    0.04447     6.05143
      N    4   -0.10413      1.99884     5.07727    0.02802     7.10413
      N    5   -0.04485      1.99883     5.02972    0.01630     7.04485
      C    6    0.33459      1.99908     3.63786    0.02847     5.66541
      C    7   -0.14840      1.99899     4.13461    0.01480     6.14840
      C    8   -0.24454      1.99905     4.23184    0.01364     6.24454
      C    9   -0.23454      1.99910     4.22107    0.01437     6.23454
      C   10   -0.26175      1.99910     4.24814    0.01451     6.26175
      C   11   -0.22937      1.99910     4.21607    0.01419     6.22937
      C   12   -0.22762      1.99906     4.21514    0.01342     6.22762
      N   13   -0.40952      1.99919     5.39452    0.01581     7.40952
      C   14   -0.50775      1.99943     4.49465    0.01367     6.50775
      O   15   -0.87811      1.99988     6.85361    0.02461     8.87811
      O   16   -0.90206      1.99988     6.87853    0.02365     8.90206
      H   17    0.24320      0.00000     0.75576    0.00104     0.75680
      H   18    0.25030      0.00000     0.74894    0.00077     0.74970
      H   19    0.24803      0.00000     0.75122    0.00075     0.75197
      H   20    0.25072      0.00000     0.74850    0.00077     0.74928
      H   21    0.25183      0.00000     0.74747    0.00070     0.74817
      H   22    0.24823      0.00000     0.74986    0.00191     0.75177
      H   23    0.26824      0.00000     0.73085    0.00091     0.73176
      H   24    0.27687      0.00000     0.72160    0.00153     0.72313
 =======================================================================
   * Total *    0.00000     39.98707    83.50150    0.51143   124.00000

 Normal termination of Gaussian 16 at Sun Jan 28 15:28:25 2024.
