 Gaussian 16, Revision A.03,

 --------------------------------
 # opt=CalcFc APFD/6-31G* scf=xqc
 --------------------------------

 ----------------------------------
 HEPOQLABXQGDTL-UHFFFAOYSA-N_conf_0
 ----------------------------------
 Symbolic Z-matrix:
 Charge =  0 Multiplicity = 1

 SCF Done:  E(RAPFD) =  -1098.41797755     A.U. after   16 cycles
 SCF Done:  E(RAPFD) =  -1098.42748679     A.U. after   13 cycles
 SCF Done:  E(RAPFD) =  -1098.42774926     A.U. after   12 cycles
 SCF Done:  E(RAPFD) =  -1098.42778515     A.U. after   12 cycles
 SCF Done:  E(RAPFD) =  -1098.42779243     A.U. after   10 cycles
 SCF Done:  E(RAPFD) =  -1098.42779422     A.U. after    9 cycles
 SCF Done:  E(RAPFD) =  -1098.42779429     A.U. after    7 cycles
 Optimization completed.
    -- Stationary point found.
 Normal termination of Gaussian 16 at Sun Jan 28 15:17:02 2024.

 ----------------------------------------------------------------------
 # freq APFD/6-31G* volume NMR pop=NPA density=current Geom=AllCheck Gu
 ess=Read
 ----------------------------------------------------------------------

 Structure from the checkpoint file:  "HEPOQLABXQGDTL-UHFFFAOYSA-N_conf_0_1.chk"
 ----------------------------------
 HEPOQLABXQGDTL-UHFFFAOYSA-N_conf_0
 ----------------------------------
 Charge =  0 Multiplicity = 1

 SCF Done:  E(RAPFD) =  -1098.42779429     A.U. after    1 cycles

      1  F    Isotropic =   112.5240   Anisotropy =   335.3112

      2  S    Isotropic =   236.0654   Anisotropy =   340.6447

      3  C    Isotropic =    52.6173   Anisotropy =    90.7711

      4  N    Isotropic =    -9.4009   Anisotropy =   442.1890

      5  C    Isotropic =    47.0110   Anisotropy =   128.0266

      6  N    Isotropic =   -35.3959   Anisotropy =   466.9505

      7  C    Isotropic =    34.8772   Anisotropy =   132.4002

      8  C    Isotropic =    79.4753   Anisotropy =   131.0827

      9  N    Isotropic =   117.2314   Anisotropy =   104.4834

     10  C    Isotropic =   159.8523   Anisotropy =    46.8934

     11  C    Isotropic =    49.6357   Anisotropy =    88.5893

     12  N    Isotropic =    10.6454   Anisotropy =   350.9852

     13  O    Isotropic =    88.4792   Anisotropy =    79.5458

     14  O    Isotropic =   113.5680   Anisotropy =    76.5300

     15  H    Isotropic =    22.7639   Anisotropy =     5.0762

     16  H    Isotropic =    27.5872   Anisotropy =     7.6199

     17  H    Isotropic =    28.5364   Anisotropy =     8.4031

     18  H    Isotropic =    28.1569   Anisotropy =     7.6022

     19  H    Isotropic =    24.3484   Anisotropy =     5.3114

  Exact polarizability: 124.448   7.022 131.468  -1.168   1.615  54.687
 Approx polarizability: 205.282  18.070 224.735  -1.337   5.996  90.920

                      1                      2                      3
                      A                      A                      A
 Frequencies --     46.4193                70.1345               132.1290
 Red. masses --      6.8739                 4.9764                 2.5307
 Frc consts  --      0.0087                 0.0144                 0.0260
 IR Inten    --      0.0597                 6.3332                 0.1121

                      4                      5                      6
                      A                      A                      A
 Frequencies --    145.3650               190.9886               233.8016
 Red. masses --      8.0566                 1.6176                 7.2543
 Frc consts  --      0.1003                 0.0348                 0.2336
 IR Inten    --      3.3639                 0.2859                 0.0543

                      7                      8                      9
                      A                      A                      A
 Frequencies --    243.8990               264.8582               280.4818
 Red. masses --      5.6364                 4.8161                11.8302
 Frc consts  --      0.1975                 0.1991                 0.5483
 IR Inten    --      0.1913                 0.9360                 1.3407

                     10                     11                     12
                      A                      A                      A
 Frequencies --    333.9389               347.5156               440.9044
 Red. masses --      6.4088                 5.7288                13.4509
 Frc consts  --      0.4211                 0.4076                 1.5406
 IR Inten    --      0.3167                 2.1043                10.2317

                     13                     14                     15
                      A                      A                      A
 Frequencies --    473.1190               551.6964               570.4039
 Red. masses --     12.1389                 6.1351                10.7454
 Frc consts  --      1.6009                 1.1002                 2.0599
 IR Inten    --     10.7629                25.6026                58.2250

                     16                     17                     18
                      A                      A                      A
 Frequencies --    576.9421               615.7593               619.2286
 Red. masses --      5.9470                 7.2716                 4.4513
 Frc consts  --      1.1663                 1.6244                 1.0056
 IR Inten    --     20.9511                 7.6999                20.0596

                     19                     20                     21
                      A                      A                      A
 Frequencies --    649.5179               665.9175               760.5428
 Red. masses --      8.9127                 6.5684                 7.2496
 Frc consts  --      2.2154                 1.7161                 2.4706
 IR Inten    --     45.8159                 9.1252                32.0940

                     22                     23                     24
                      A                      A                      A
 Frequencies --    793.2704               813.1657               853.6471
 Red. masses --     18.6492                10.6287                 9.6143
 Frc consts  --      6.9144                 4.1408                 4.1278
 IR Inten    --    160.2214                 1.1897                12.1382

                     25                     26                     27
                      A                      A                      A
 Frequencies --    906.8649               971.4551               981.7434
 Red. masses --      1.4497                 1.4263                 9.8067
 Frc consts  --      0.7024                 0.7931                 5.5689
 IR Inten    --      6.7665                 4.0774                 9.5599

                     28                     29                     30
                      A                      A                      A
 Frequencies --   1080.9038              1124.7029              1160.0729
 Red. masses --      2.3062                 3.1982                 1.3035
 Frc consts  --      1.5875                 2.3836                 1.0335
 IR Inten    --     10.7681                34.4899                 0.2131

                     31                     32                     33
                      A                      A                      A
 Frequencies --   1205.3011              1249.6873              1261.2146
 Red. masses --     10.8723                 6.2027                 1.8693
 Frc consts  --      9.3060                 5.7073                 1.7519
 IR Inten    --    130.2831                26.8911                60.2417

                     34                     35                     36
                      A                      A                      A
 Frequencies --   1319.3829              1338.2732              1385.3925
 Red. masses --      2.9816                 4.0395                 2.2899
 Frc consts  --      3.0581                 4.2626                 2.5895
 IR Inten    --     13.4875                46.2736                20.7930

                     37                     38                     39
                      A                      A                      A
 Frequencies --   1414.7269              1439.2033              1459.6066
 Red. masses --      5.5887                 9.7851                 3.6334
 Frc consts  --      6.5903                11.9415                 4.5607
 IR Inten    --     48.9845               174.9545               111.1682

                     40                     41                     42
                      A                      A                      A
 Frequencies --   1493.3948              1507.4738              1510.5288
 Red. masses --      1.6062                 1.0452                 2.7310
 Frc consts  --      2.1106                 1.3994                 3.6715
 IR Inten    --      6.1499                 9.9712                12.4248

                     43                     44                     45
                      A                      A                      A
 Frequencies --   1545.1809              1565.1913              1606.4089
 Red. masses --      1.1200                 5.3623                 8.0852
 Frc consts  --      1.5755                 7.7399                12.2929
 IR Inten    --     37.3504                84.0725               120.5637

                     46                     47                     48
                      A                      A                      A
 Frequencies --   1683.3169              3109.9690              3199.7290
 Red. masses --      9.3700                 1.0322                 1.1061
 Frc consts  --     15.6431                 5.8821                 6.6725
 IR Inten    --     15.7648                19.0654                 3.3837

                     49                     50                     51
                      A                      A                      A
 Frequencies --   3210.3215              3239.2535              3277.3934
 Red. masses --      1.1064                 1.0920                 1.0977
 Frc consts  --      6.7184                 6.7508                 6.9468
 IR Inten    --      0.6351                14.3751                 0.5472

 - Thermochemistry -
 -------------------
 Temperature   298.150 Kelvin.  Pressure   1.00000 Atm.
 Atom     1 has atomic number  9 and mass  18.99840

 Molecular mass:   216.01173 amu.
 Principal axes and moments of inertia in atomic units:
                           1         2         3
     Eigenvalues --  1706.728363015.874004334.83215
           X            0.99981   0.01944  -0.00334
           Y           -0.01943   0.99981   0.00275
           Z            0.00339  -0.00268   0.99999
 This molecule is an asymmetric top.
 Rotational symmetry number  1.
 Warning -- assumption of classical behavior for rotation
           may cause significant error
 Rotational temperatures (Kelvin)      0.05075     0.02872     0.01998
 Rotational constants (GHZ):           1.05743     0.59841     0.41633
 Zero-point vibrational energy     334477.9 (Joules/Mol)
                                   79.94214 (Kcal/Mol)
 Warning -- explicit consideration of  18 degrees of freedom as
           vibrations may cause significant error
 Vibrational temperatures:     66.79   100.91   190.10   209.15   274.79
          (Kelvin)            336.39   350.92   381.07   403.55   480.46
                              500.00   634.36   680.71   793.77   820.68
                              830.09   885.94   890.93   934.51   958.11
                             1094.25  1141.34  1169.96  1228.21  1304.78
                             1397.71  1412.51  1555.18  1618.20  1669.09
                             1734.16  1798.02  1814.61  1898.30  1925.48
                             1993.27  2035.48  2070.69  2100.05  2148.66
                             2168.92  2173.31  2223.17  2251.96  2311.26
                             2421.92  4474.55  4603.70  4618.94  4660.56
                             4715.44

 Zero-point correction=                           0.127396 (Hartree/Particle)
 Thermal correction to Energy=                    0.138673
 Thermal correction to Enthalpy=                  0.139617
 Thermal correction to Gibbs Free Energy=         0.089280
 Sum of electronic and zero-point Energies=          -1098.300398
 Sum of electronic and thermal Energies=             -1098.289121
 Sum of electronic and thermal Enthalpies=           -1098.288177
 Sum of electronic and thermal Free Energies=        -1098.338514

                     E (Thermal)             CV                S
                      KCal/Mol        Cal/Mol-Kelvin    Cal/Mol-Kelvin
 Total                   87.019             41.907            105.944
 Electronic               0.000              0.000              0.000
 Translational            0.889              2.981             42.014
 Rotational               0.889              2.981             31.479
 Vibrational             85.241             35.945             32.451
 Vibration     1          0.595              1.979              4.964
 Vibration     2          0.598              1.968              4.150
 Vibration     3          0.612              1.921              2.915
 Vibration     4          0.617              1.908              2.732
 Vibration     5          0.634              1.852              2.218
 Vibration     6          0.654              1.789              1.850
 Vibration     7          0.659              1.773              1.774
 Vibration     8          0.671              1.737              1.630
 Vibration     9          0.680              1.710              1.531
 Vibration    10          0.715              1.608              1.241
 Vibration    11          0.725              1.580              1.177
 Vibration    12          0.801              1.381              0.824
 Vibration    13          0.830              1.310              0.729
 Vibration    14          0.907              1.136              0.541
 Vibration    15          0.927              1.095              0.503
 Vibration    16          0.933              1.081              0.491
 Vibration    17          0.975              0.999              0.423
 Vibration    18          0.979              0.991              0.418

 Optimization completed.
    -- Stationary point found.
 Normal termination of Gaussian 16 at Sun Jan 28 15:21:25 2024.
 Gaussian 16:  ES64L-G16RevA.03 25-Dec-2016

 ----------------------------------------------------------------------
 # TD(NStates=10, Root=1) APFD/6-31G* volume pop=NPA density=current Ge
 om=AllCheck Guess=Read
 ----------------------------------------------------------------------

 Structure from the checkpoint file:  "HEPOQLABXQGDTL-UHFFFAOYSA-N_conf_0_2.chk"
 ----------------------------------
 HEPOQLABXQGDTL-UHFFFAOYSA-N_conf_0
 ----------------------------------
 Charge =  0 Multiplicity = 1

                         Standard orientation:
 ---------------------------------------------------------------------
 Center     Atomic      Atomic             Coordinates (Angstroms)
 Number     Number       Type             X           Y           Z
 ---------------------------------------------------------------------
      1          9           0        1.930580   -0.797530    1.268043
      2         16           0        1.957761    0.031404   -0.120080
      3          6           0        0.283496    0.689709   -0.030642
      4          7           0        0.203120    2.005048   -0.018421
      5          6           0       -1.023737    2.552804   -0.001867
      6          7           0       -2.191967    1.921766    0.006754
      7          6           0       -2.102751    0.594027   -0.000158
      8          6           0       -0.858282   -0.105840   -0.020257
      9          7           0       -1.191048   -1.435438   -0.017441
     10          6           0       -0.331803   -2.605408   -0.004247
     11          6           0       -2.561338   -1.460689    0.002375
     12          7           0       -3.145974   -0.293532    0.011218
     13          8           0        2.016089   -0.968703   -1.163870
     14          8           0        2.940299    1.067218    0.031675
     15          1           0       -1.051377    3.638629    0.004472
     16          1           0        0.306248   -2.618828   -0.888376
     17          1           0       -0.969622   -3.490857    0.005237
     18          1           0        0.295310   -2.604005    0.888984
     19          1           0       -3.083477   -2.410284    0.010155
 ---------------------------------------------------------------------

 SCF Done:  E(RAPFD) =  -1098.42779429     A.U. after    1 cycles

 Excitation energies and oscillator strengths:

 Excited State   1:      Singlet-A      3.9939 eV  310.44 nm  f=0.0029  <S**2>=0.000
      54 -> 56         0.16660
      55 -> 56         0.68193
 This state for optimization and/or second-order correction.
 Total Energy, E(TD-HF/TD-DFT) =  -1098.28102170
 Copying the excited state density for this state as the 1-particle RhoCI density.

 Excited State   2:      Singlet-A      4.6987 eV  263.87 nm  f=0.0835  <S**2>=0.000
      53 -> 56        -0.21089
      53 -> 57        -0.13602
      54 -> 56         0.63275
      55 -> 56        -0.15194

 Excited State   3:      Singlet-A      4.9470 eV  250.62 nm  f=0.0016  <S**2>=0.000
      52 -> 56         0.69609

 Excited State   4:      Singlet-A      5.1377 eV  241.32 nm  f=0.0778  <S**2>=0.000
      53 -> 56         0.62888
      53 -> 57        -0.12569
      54 -> 56         0.18551
      54 -> 57         0.18633

 Excited State   5:      Singlet-A      5.3807 eV  230.42 nm  f=0.0000  <S**2>=0.000
      54 -> 57         0.16365
      55 -> 57         0.67590

 Excited State   6:      Singlet-A      5.7487 eV  215.67 nm  f=0.0008  <S**2>=0.000
      51 -> 56         0.68814

 Excited State   7:      Singlet-A      6.1452 eV  201.76 nm  f=0.0071  <S**2>=0.000
      49 -> 56         0.11618
      50 -> 56         0.67895

 Excited State   8:      Singlet-A      6.4228 eV  193.04 nm  f=0.0281  <S**2>=0.000
      49 -> 56        -0.14607
      52 -> 57         0.61455
      54 -> 57         0.25962

 Excited State   9:      Singlet-A      6.4466 eV  192.32 nm  f=0.1334  <S**2>=0.000
      49 -> 56        -0.28202
      52 -> 57        -0.29491
      53 -> 56        -0.11960
      54 -> 57         0.51090
      55 -> 57        -0.15133

 Excited State  10:      Singlet-A      6.5871 eV  188.22 nm  f=0.0181  <S**2>=0.000
      48 -> 56         0.55599
      49 -> 56        -0.36405
      54 -> 57        -0.12715

 The electronic state is 1-A.
 Alpha  occ. eigenvalues --  -89.25023 -24.80233 -19.23540 -19.23512 -14.48178
 Alpha  occ. eigenvalues --  -14.41293 -14.40209 -14.39032 -10.33038 -10.31997
 Alpha  occ. eigenvalues --  -10.30839 -10.30586 -10.30264 -10.28337  -8.22948
 Alpha  occ. eigenvalues --   -6.17884  -6.17544  -6.17426  -1.29151  -1.15565
 Alpha  occ. eigenvalues --   -1.09719  -1.07505  -1.03557  -0.97125  -0.92948
 Alpha  occ. eigenvalues --   -0.84495  -0.78495  -0.75426  -0.70267  -0.68662
 Alpha  occ. eigenvalues --   -0.64627  -0.60128  -0.59334  -0.56358  -0.55626
 Alpha  occ. eigenvalues --   -0.53283  -0.52876  -0.50922  -0.50188  -0.47347
 Alpha  occ. eigenvalues --   -0.47154  -0.46926  -0.45616  -0.45303  -0.42820
 Alpha  occ. eigenvalues --   -0.40914  -0.38297  -0.37510  -0.36737  -0.35285
 Alpha  occ. eigenvalues --   -0.35043  -0.32161  -0.30702  -0.29158  -0.29038
 Alpha virt. eigenvalues --   -0.09068  -0.03610   0.00454   0.02313   0.03880
 Alpha virt. eigenvalues --    0.07757   0.08668   0.09852   0.11671   0.12595
 Alpha virt. eigenvalues --    0.13266   0.13873   0.15364   0.18235   0.20011

 Mulliken charges:
               1
     1  F   -0.320715
     2  S    1.287719
     3  C   -0.090199
     4  N   -0.391010
     5  C    0.192303
     6  N   -0.441788
     7  C    0.424202
     8  C    0.408691
     9  N   -0.553824
    10  C   -0.417668
    11  C    0.207976
    12  N   -0.465330
    13  O   -0.498112
    14  O   -0.444176
    15  H    0.214369
    16  H    0.251612
    17  H    0.203470
    18  H    0.226046
    19  H    0.206435
 Sum of Mulliken charges =   0.00000

 Dipole moment (field-independent basis, Debye):
    X=             -2.6413    Y=             -2.5479    Z=              0.5936  Tot=              3.7176
 Quadrupole moment (field-independent basis, Debye-Ang):
   XX=           -101.0608   YY=            -70.3983   ZZ=            -86.8168
   XY=              1.6953   XZ=              1.4854   YZ=             -1.3580

 Summary of Natural Population Analysis:

                                       Natural Population
                Natural  -----------------------------------------------
    Atom  No    Charge         Core      Valence    Rydberg      Total
 -----------------------------------------------------------------------
      F    1   -0.51079      1.99997     7.50132    0.00950     9.51079
      S    2    2.40092      9.99881     3.39398    0.20629    13.59908
      C    3   -0.22650      1.99868     4.19034    0.03747     6.22650
      N    4   -0.35049      1.99924     5.32745    0.02381     7.35049
      C    5    0.20687      1.99939     3.76601    0.02773     5.79313
      N    6   -0.28713      1.99914     5.27118    0.01681     7.28713
      C    7    0.29317      1.99900     3.67976    0.02807     5.70683
      C    8    0.10176      1.99886     3.87717    0.02221     5.89824
      N    9   -0.37649      1.99926     5.36506    0.01217     7.37649
      C   10   -0.50091      1.99943     4.48773    0.01375     6.50091
      C   11    0.19768      1.99936     3.77467    0.02830     5.80232
      N   12   -0.44280      1.99942     5.42025    0.02314     7.44280
      O   13   -0.90349      1.99988     6.88016    0.02345     8.90349
      O   14   -0.86821      1.99988     6.84359    0.02474     8.86821
      H   15    0.24247      0.00000     0.75654    0.00098     0.75753
      H   16    0.27416      0.00000     0.72473    0.00110     0.72584
      H   17    0.25075      0.00000     0.74861    0.00064     0.74925
      H   18    0.26070      0.00000     0.73789    0.00141     0.73930
      H   19    0.23832      0.00000     0.76120    0.00048     0.76168
 =======================================================================
   * Total *    0.00000     35.99031    73.50764    0.50205   110.00000

 Normal termination of Gaussian 16 at Sun Jan 28 15:27:25 2024.
