 Gaussian 16, Revision A.03,

 --------------------------------
 # opt=CalcFc APFD/6-31G* scf=xqc
 --------------------------------

 ----------------------------------
 ZUMPXWNMJGCXDJ-UHFFFAOYSA-N_conf_0
 ----------------------------------
 Symbolic Z-matrix:
 Charge =  0 Multiplicity = 1

 SCF Done:  E(RAPFD) =  -1098.41731990     A.U. after   15 cycles
 SCF Done:  E(RAPFD) =  -1098.42806622     A.U. after   15 cycles
 SCF Done:  E(RAPFD) =  -1098.42816744     A.U. after   14 cycles
 SCF Done:  E(RAPFD) =  -1098.42850285     A.U. after   13 cycles
 SCF Done:  E(RAPFD) =  -1098.39052958     A.U. after   14 cycles
 SCF Done:  E(RAPFD) =  -1098.42868862     A.U. after   13 cycles
 SCF Done:  E(RAPFD) =  -1098.42891256     A.U. after   11 cycles
 SCF Done:  E(RAPFD) =  -1098.42899308     A.U. after   12 cycles
 SCF Done:  E(RAPFD) =  -1098.42900527     A.U. after   10 cycles
 SCF Done:  E(RAPFD) =  -1098.42900716     A.U. after   10 cycles
 SCF Done:  E(RAPFD) =  -1098.42900812     A.U. after    9 cycles
 SCF Done:  E(RAPFD) =  -1098.42900924     A.U. after    9 cycles
 SCF Done:  E(RAPFD) =  -1098.42900988     A.U. after    9 cycles
 SCF Done:  E(RAPFD) =  -1098.42900995     A.U. after    8 cycles
 Optimization completed.
    -- Stationary point found.
 Normal termination of Gaussian 16 at Sun Jan 28 15:21:15 2024.

 ----------------------------------------------------------------------
 # freq APFD/6-31G* volume NMR pop=NPA density=current Geom=AllCheck Gu
 ess=Read
 ----------------------------------------------------------------------

 Structure from the checkpoint file:  "ZUMPXWNMJGCXDJ-UHFFFAOYSA-N_conf_0_1.chk"
 ----------------------------------
 ZUMPXWNMJGCXDJ-UHFFFAOYSA-N_conf_0
 ----------------------------------
 Charge =  0 Multiplicity = 1

 SCF Done:  E(RAPFD) =  -1098.42900995     A.U. after    1 cycles

      1  C    Isotropic =   166.0438   Anisotropy =    45.0152

      2  N    Isotropic =   109.9980   Anisotropy =   109.7501

      3  C    Isotropic =    53.8476   Anisotropy =    94.7502

      4  N    Isotropic =    15.2005   Anisotropy =   374.0792

      5  C    Isotropic =    46.4728   Anisotropy =   138.5978

      6  C    Isotropic =    70.6713   Anisotropy =   126.2863

      7  C    Isotropic =    44.2822   Anisotropy =   104.4988

      8  S    Isotropic =   241.1165   Anisotropy =   339.2384

      9  F    Isotropic =   120.0252   Anisotropy =   340.5554

     10  O    Isotropic =    90.8056   Anisotropy =    74.4617

     11  O    Isotropic =   111.4219   Anisotropy =    66.5197

     12  N    Isotropic =    -9.4726   Anisotropy =   437.3772

     13  C    Isotropic =    47.4177   Anisotropy =   128.6188

     14  N    Isotropic =     1.8143   Anisotropy =   429.8986

     15  H    Isotropic =    27.6108   Anisotropy =     8.1101

     16  H    Isotropic =    28.6727   Anisotropy =    10.1297

     17  H    Isotropic =    28.6599   Anisotropy =    10.1330

     18  H    Isotropic =    24.1933   Anisotropy =     4.8352

     19  H    Isotropic =    23.0311   Anisotropy =     4.4790

  Exact polarizability: 140.607  11.691 117.676   0.897  -2.213  57.169
 Approx polarizability: 209.598  22.719 210.338   0.033  -6.946  94.498

                      1                      2                      3
                      A                      A                      A
 Frequencies --     23.5716                40.4630                70.3665
 Red. masses --     10.6405                 1.0705                 5.1313
 Frc consts  --      0.0035                 0.0010                 0.0150
 IR Inten    --      0.1262                 0.0046                 0.4394

                      4                      5                      6
                      A                      A                      A
 Frequencies --    106.9332               160.2446               222.5101
 Red. masses --      9.3362                 5.4083                 6.1388
 Frc consts  --      0.0629                 0.0818                 0.1791
 IR Inten    --      0.3027                 3.6369                 0.2442

                      7                      8                      9
                      A                      A                      A
 Frequencies --    239.5060               261.5877               268.4193
 Red. masses --      4.0761                13.7506                 5.8202
 Frc consts  --      0.1378                 0.5544                 0.2471
 IR Inten    --      3.3157                 0.9095                 0.0712

                     10                     11                     12
                      A                      A                      A
 Frequencies --    305.7019               322.2623               429.5129
 Red. masses --      6.8253                 9.0539                15.8789
 Frc consts  --      0.3758                 0.5540                 1.7259
 IR Inten    --      0.4574                 0.0787                10.6086

                     13                     14                     15
                      A                      A                      A
 Frequencies --    466.0173               535.5016               567.3292
 Red. masses --     15.0641                 5.2691                13.0272
 Frc consts  --      1.9275                 0.8902                 2.4704
 IR Inten    --     13.0063                 3.0770               128.4743

                     16                     17                     18
                      A                      A                      A
 Frequencies --    572.2348               604.6682               654.2214
 Red. masses --      4.1549                10.0452                 4.8476
 Frc consts  --      0.8016                 2.1639                 1.2224
 IR Inten    --      5.5262                30.0809                26.9265

                     19                     20                     21
                      A                      A                      A
 Frequencies --    661.4071               687.6592               746.8910
 Red. masses --      8.3774                 7.5453                 7.0685
 Frc consts  --      2.1592                 2.1022                 2.3232
 IR Inten    --      3.4111                41.8302                13.4953

                     22                     23                     24
                      A                      A                      A
 Frequencies --    814.7321               821.8979               873.2340
 Red. masses --     10.3447                16.6473                11.9141
 Frc consts  --      4.0458                 6.6257                 5.3527
 IR Inten    --     45.8766               117.5499                 5.9853

                     25                     26                     27
                      A                      A                      A
 Frequencies --    898.2024               950.0752               967.5349
 Red. masses --      1.4591                 7.4107                 1.4347
 Frc consts  --      0.6936                 3.9412                 0.7913
 IR Inten    --      5.2635                13.4096                 2.8454

                     28                     29                     30
                      A                      A                      A
 Frequencies --   1081.6897              1162.0336              1182.4296
 Red. masses --      1.7914                 1.3026                 6.6674
 Frc consts  --      1.2350                 1.0363                 5.4924
 IR Inten    --     14.7815                 0.0515                59.3298

                     31                     32                     33
                      A                      A                      A
 Frequencies --   1209.9910              1222.9123              1262.8392
 Red. masses --      5.2659                 7.4829                 1.8465
 Frc consts  --      4.5424                 6.5934                 1.7350
 IR Inten    --      6.0013               119.7660                75.6791

                     34                     35                     36
                      A                      A                      A
 Frequencies --   1302.3709              1357.2973              1394.4519
 Red. masses --      2.3522                 7.8104                 2.5212
 Frc consts  --      2.3506                 8.4776                 2.8885
 IR Inten    --      4.3804                48.9776                61.7329

                     37                     38                     39
                      A                      A                      A
 Frequencies --   1408.7047              1439.1129              1464.0538
 Red. masses --      5.4338                18.3107                 2.0242
 Frc consts  --      6.3533                22.3432                 2.5563
 IR Inten    --     24.3651               188.8774                66.6777

                     40                     41                     42
                      A                      A                      A
 Frequencies --   1482.9477              1495.6341              1519.0498
 Red. masses --      1.9412                 3.7663                 1.0393
 Frc consts  --      2.5153                 4.9639                 1.4129
 IR Inten    --     15.4587                 6.5099                11.5155

                     43                     44                     45
                      A                      A                      A
 Frequencies --   1529.2408              1576.1856              1626.3011
 Red. masses --      1.1358                 4.5021                 8.2495
 Frc consts  --      1.5650                 6.5899                12.8552
 IR Inten    --     28.2693                67.6748                92.3500

                     46                     47                     48
                      A                      A                      A
 Frequencies --   1680.2752              3092.1752              3172.4332
 Red. masses --      9.1957                 1.0330                 1.1073
 Frc consts  --     15.2966                 5.8196                 6.5658
 IR Inten    --     57.4135                32.9954                 8.3634

                     49                     50                     51
                      A                      A                      A
 Frequencies --   3202.4868              3241.8646              3281.2522
 Red. masses --      1.1045                 1.0920                 1.0976
 Frc consts  --      6.6743                 6.7619                 6.9627
 IR Inten    --      0.1687                11.8153                 0.0419

 - Thermochemistry -
 -------------------
 Temperature   298.150 Kelvin.  Pressure   1.00000 Atm.
 Atom     1 has atomic number  6 and mass  12.00000

 Molecular mass:   216.01173 amu.
 Principal axes and moments of inertia in atomic units:
                           1         2         3
     Eigenvalues --  1327.974773943.621424886.53572
           X            0.99990   0.01408   0.00218
           Y           -0.01407   0.99989  -0.00491
           Z           -0.00225   0.00488   0.99999
 This molecule is an asymmetric top.
 Rotational symmetry number  1.
 Warning -- assumption of classical behavior for rotation
           may cause significant error
 Rotational temperatures (Kelvin)      0.06522     0.02196     0.01773
 Rotational constants (GHZ):           1.35902     0.45764     0.36933
 Zero-point vibrational energy     332923.2 (Joules/Mol)
                                   79.57056 (Kcal/Mol)
 Warning -- explicit consideration of  17 degrees of freedom as
           vibrations may cause significant error
 Vibrational temperatures:     33.91    58.22   101.24   153.85   230.56
          (Kelvin)            320.14   344.60   376.37   386.20   439.84
                              463.66   617.97   670.49   770.47   816.26
                              823.32   869.98   941.28   951.62   989.39
                             1074.61  1172.22  1182.53  1256.39  1292.31
                             1366.95  1392.07  1556.31  1671.91  1701.25
                             1740.91  1759.50  1816.94  1873.82  1952.85
                             2006.31  2026.81  2070.56  2106.45  2133.63
                             2151.88  2185.57  2200.24  2267.78  2339.88
                             2417.54  4448.95  4564.42  4607.66  4664.32
                             4720.99

 Zero-point correction=                           0.126804 (Hartree/Particle)
 Thermal correction to Energy=                    0.138537
 Thermal correction to Enthalpy=                  0.139481
 Thermal correction to Gibbs Free Energy=         0.086667
 Sum of electronic and zero-point Energies=          -1098.302206
 Sum of electronic and thermal Energies=             -1098.290473
 Sum of electronic and thermal Enthalpies=           -1098.289529
 Sum of electronic and thermal Free Energies=        -1098.342343

                     E (Thermal)             CV                S
                      KCal/Mol        Cal/Mol-Kelvin    Cal/Mol-Kelvin
 Total                   86.933             42.149            111.157
 Electronic               0.000              0.000              0.000
 Translational            0.889              2.981             42.014
 Rotational               0.889              2.981             31.615
 Vibrational             85.156             36.188             37.528
 Vibration     1          0.593              1.985              6.308
 Vibration     2          0.594              1.981              5.236
 Vibration     3          0.598              1.968              4.143
 Vibration     4          0.606              1.944              3.324
 Vibration     5          0.622              1.891              2.547
 Vibration     6          0.648              1.807              1.939
 Vibration     7          0.657              1.780              1.807
 Vibration     8          0.669              1.743              1.651
 Vibration     9          0.673              1.731              1.606
 Vibration    10          0.696              1.663              1.385
 Vibration    11          0.707              1.631              1.299
 Vibration    12          0.791              1.406              0.860
 Vibration    13          0.823              1.325              0.749
 Vibration    14          0.891              1.172              0.575
 Vibration    15          0.923              1.102              0.509
 Vibration    16          0.928              1.091              0.500
 Vibration    17          0.963              1.022              0.442

 Optimization completed.
    -- Stationary point found.
 Normal termination of Gaussian 16 at Sun Jan 28 15:25:57 2024.
 Gaussian 16:  ES64L-G16RevA.03 25-Dec-2016

 ----------------------------------------------------------------------
 # TD(NStates=10, Root=1) APFD/6-31G* volume pop=NPA density=current Ge
 om=AllCheck Guess=Read
 ----------------------------------------------------------------------

 Structure from the checkpoint file:  "ZUMPXWNMJGCXDJ-UHFFFAOYSA-N_conf_0_2.chk"
 ----------------------------------
 ZUMPXWNMJGCXDJ-UHFFFAOYSA-N_conf_0
 ----------------------------------
 Charge =  0 Multiplicity = 1

                         Standard orientation:
 ---------------------------------------------------------------------
 Center     Atomic      Atomic             Coordinates (Angstroms)
 Number     Number       Type             X           Y           Z
 ---------------------------------------------------------------------
      1          6           0       -4.133695   -0.297698   -0.007536
      2          7           0       -2.706226   -0.537549   -0.000802
      3          6           0       -2.046748   -1.741465    0.003795
      4          7           0       -0.741276   -1.656126    0.008167
      5          6           0       -1.726217    0.417239    0.001662
      6          6           0       -0.509308   -0.304808    0.009104
      7          6           0        0.621575    0.506846    0.007145
      8         16           0        2.286624   -0.177845    0.097150
      9          9           0        2.109291   -1.291104   -1.042579
     10          8           0        2.443955   -0.886481    1.343916
     11          8           0        3.249139    0.773207   -0.393278
     12          7           0        0.536865    1.824524    0.008251
     13          6           0       -0.689626    2.370233    0.005952
     14          7           0       -1.862580    1.734824    0.001488
     15          1           0       -4.286761    0.782589   -0.006079
     16          1           0       -4.589218   -0.725814   -0.904328
     17          1           0       -4.597616   -0.729317    0.883192
     18          1           0       -2.599391   -2.673247    0.002907
     19          1           0       -0.724743    3.455636    0.007543
 ---------------------------------------------------------------------

 SCF Done:  E(RAPFD) =  -1098.42900995     A.U. after    1 cycles

 Excitation energies and oscillator strengths:

 Excited State   1:      Singlet-A      4.1235 eV  300.67 nm  f=0.0023  <S**2>=0.000
      54 -> 56         0.62750
      55 -> 56         0.31373
 This state for optimization and/or second-order correction.
 Total Energy, E(TD-HF/TD-DFT) =  -1098.27747241
 Copying the excited state density for this state as the 1-particle RhoCI density.

 Excited State   2:      Singlet-A      4.8971 eV  253.18 nm  f=0.1282  <S**2>=0.000
      53 -> 56        -0.27185
      53 -> 57        -0.13428
      54 -> 56        -0.28457
      55 -> 56         0.55938

 Excited State   3:      Singlet-A      5.1242 eV  241.96 nm  f=0.0023  <S**2>=0.000
      52 -> 56         0.69089

 Excited State   4:      Singlet-A      5.1377 eV  241.32 nm  f=0.0568  <S**2>=0.000
      53 -> 56         0.59954
      54 -> 56        -0.11033
      55 -> 56         0.21934
      55 -> 57         0.22227

 Excited State   5:      Singlet-A      5.4724 eV  226.56 nm  f=0.0005  <S**2>=0.000
      54 -> 57         0.61935
      55 -> 57         0.30966

 Excited State   6:      Singlet-A      5.7144 eV  216.97 nm  f=0.0075  <S**2>=0.000
      51 -> 56         0.69771

 Excited State   7:      Singlet-A      6.1396 eV  201.94 nm  f=0.0060  <S**2>=0.000
      48 -> 56         0.54099
      49 -> 56        -0.20292
      50 -> 56        -0.37394

 Excited State   8:      Singlet-A      6.1686 eV  200.99 nm  f=0.0108  <S**2>=0.000
      48 -> 56         0.25860
      49 -> 56        -0.33377
      50 -> 56         0.54614

 Excited State   9:      Singlet-A      6.3203 eV  196.17 nm  f=0.0385  <S**2>=0.000
      48 -> 56         0.30746
      49 -> 56         0.53073
      50 -> 56         0.11515
      54 -> 57        -0.12667
      55 -> 57         0.25352

 Excited State  10:      Singlet-A      6.4938 eV  190.93 nm  f=0.1952  <S**2>=0.000
      47 -> 56        -0.21095
      48 -> 56        -0.12803
      49 -> 56        -0.20756
      50 -> 56        -0.16757
      53 -> 56        -0.18378
      54 -> 57        -0.24806
      55 -> 57         0.48574

 The electronic state is 1-A.
 Alpha  occ. eigenvalues --  -89.23258 -24.78335 -19.21500 -19.21443 -14.47537
 Alpha  occ. eigenvalues --  -14.41337 -14.40898 -14.39663 -10.32121 -10.31970
 Alpha  occ. eigenvalues --  -10.31855 -10.30862 -10.28756 -10.28612  -8.21133
 Alpha  occ. eigenvalues --   -6.16069  -6.15722  -6.15634  -1.27528  -1.13526
 Alpha  occ. eigenvalues --   -1.09926  -1.05419  -1.03464  -0.97007  -0.93779
 Alpha  occ. eigenvalues --   -0.83341  -0.78730  -0.74711  -0.70017  -0.69103
 Alpha  occ. eigenvalues --   -0.63433  -0.59887  -0.58336  -0.56105  -0.53753
 Alpha  occ. eigenvalues --   -0.53304  -0.51144  -0.50424  -0.49349  -0.47799
 Alpha  occ. eigenvalues --   -0.47444  -0.45138  -0.44696  -0.44517  -0.42698
 Alpha  occ. eigenvalues --   -0.39323  -0.38125  -0.36166  -0.35924  -0.34887
 Alpha  occ. eigenvalues --   -0.33123  -0.32497  -0.30851  -0.29035  -0.28891
 Alpha virt. eigenvalues --   -0.08603  -0.03370   0.00467   0.03678   0.05417
 Alpha virt. eigenvalues --    0.08731   0.10187   0.10787   0.11273   0.12639
 Alpha virt. eigenvalues --    0.13699   0.14688   0.14927   0.16861   0.19563

 Mulliken charges:
               1
     1  C   -0.403705
     2  N   -0.510127
     3  C    0.205317
     4  N   -0.472900
     5  C    0.580839
     6  C    0.258837
     7  C   -0.118092
     8  S    1.273496
     9  F   -0.297069
    10  O   -0.456071
    11  O   -0.454859
    12  N   -0.362076
    13  C    0.179033
    14  N   -0.502269
    15  H    0.233191
    16  H    0.216577
    17  H    0.217039
    18  H    0.206955
    19  H    0.205885
 Sum of Mulliken charges =  -0.00000

 Dipole moment (field-independent basis, Debye):
    X=             -8.4401    Y=              0.4634    Z=             -0.5666  Tot=              8.4717
 Quadrupole moment (field-independent basis, Debye-Ang):
   XX=            -75.3620   YY=            -81.8073   ZZ=            -87.3863
   XY=              4.3970   XZ=             -1.1976   YZ=              1.8358

 Summary of Natural Population Analysis:

                                       Natural Population
                Natural  -----------------------------------------------
    Atom  No    Charge         Core      Valence    Rydberg      Total
 -----------------------------------------------------------------------
      C    1   -0.49981      1.99945     4.48776    0.01260     6.49981
      N    2   -0.38822      1.99927     5.37689    0.01207     7.38822
      C    3    0.17855      1.99933     3.79430    0.02781     5.82145
      N    4   -0.38806      1.99929     5.36713    0.02164     7.38806
      C    5    0.35653      1.99900     3.61939    0.02508     5.64347
      C    6    0.04443      1.99879     3.93206    0.02472     5.95557
      C    7   -0.21331      1.99868     4.17769    0.03694     6.21331
      S    8    2.41628      9.99883     3.37724    0.20765    13.58372
      F    9   -0.49424      1.99997     7.48428    0.00999     9.49424
      O   10   -0.87112      1.99988     6.84708    0.02416     8.87112
      O   11   -0.87688      1.99988     6.85264    0.02437     8.87688
      N   12   -0.28486      1.99916     5.26399    0.02171     7.28486
      C   13    0.18899      1.99940     3.78379    0.02782     5.81101
      N   14   -0.42471      1.99925     5.40346    0.02200     7.42471
      H   15    0.26897      0.00000     0.73001    0.00103     0.73103
      H   16    0.25400      0.00000     0.74517    0.00083     0.74600
      H   17    0.25433      0.00000     0.74484    0.00083     0.74567
      H   18    0.24051      0.00000     0.75901    0.00048     0.75949
      H   19    0.23862      0.00000     0.76046    0.00091     0.76138
 =======================================================================
   * Total *    0.00000     35.99018    73.50718    0.50264   110.00000

 Normal termination of Gaussian 16 at Sun Jan 28 15:31:57 2024.
