 Gaussian 16, Revision A.03,

 --------------------------------
 # opt=CalcFc APFD/6-31G* scf=xqc
 --------------------------------

 ----------------------------------
 YKZXWWMBQGHLNP-UHFFFAOYSA-N_conf_0
 ----------------------------------
 Symbolic Z-matrix:
 Charge =  0 Multiplicity = 1

 SCF Done:  E(RAPFD) =  -971.743268627     A.U. after   16 cycles
 SCF Done:  E(RAPFD) =  -971.749522894     A.U. after   15 cycles
 SCF Done:  E(RAPFD) =  -971.750503790     A.U. after   15 cycles
 SCF Done:  E(RAPFD) =  -971.751328688     A.U. after   13 cycles
 SCF Done:  E(RAPFD) =  -971.751631371     A.U. after   13 cycles
 SCF Done:  E(RAPFD) =  -971.751625632     A.U. after   12 cycles
 SCF Done:  E(RAPFD) =  -971.751646953     A.U. after   12 cycles
 SCF Done:  E(RAPFD) =  -971.751650292     A.U. after    9 cycles
 Optimization completed.
    -- Stationary point found.
 Normal termination of Gaussian 16 at Fri Feb 16 15:12:08 2024.

 ----------------------------------------------------------------------
 # freq APFD/6-31G* volume NMR pop=NPA density=current Geom=AllCheck Gu
 ess=Read
 ----------------------------------------------------------------------

 Structure from the checkpoint file:  "YKZXWWMBQGHLNP-UHFFFAOYSA-N_conf_0_1.chk"
 ----------------------------------
 YKZXWWMBQGHLNP-UHFFFAOYSA-N_conf_0
 ----------------------------------
 Charge =  0 Multiplicity = 1

 SCF Done:  E(RAPFD) =  -971.751650292     A.U. after    1 cycles

      1  N    Isotropic =   -26.1213   Anisotropy =   396.0256

      2  C    Isotropic =    84.5859   Anisotropy =   309.4471

      3  C    Isotropic =    78.3134   Anisotropy =   146.8726

      4  C    Isotropic =    65.3393   Anisotropy =   174.0086

      5  C    Isotropic =    70.1828   Anisotropy =   174.8335

      6  C    Isotropic =    58.8677   Anisotropy =   119.0448

      7  S    Isotropic =   234.0641   Anisotropy =   333.0925

      8  O    Isotropic =   116.1608   Anisotropy =    73.7497

      9  O    Isotropic =   116.1470   Anisotropy =    73.7380

     10  F    Isotropic =   109.0294   Anisotropy =   336.7283

     11  C    Isotropic =    70.1886   Anisotropy =   174.8332

     12  C    Isotropic =    65.3387   Anisotropy =   174.0088

     13  H    Isotropic =    24.3475   Anisotropy =     5.7366

     14  H    Isotropic =    24.1054   Anisotropy =     7.6787

     15  H    Isotropic =    24.1059   Anisotropy =     7.6767

     16  H    Isotropic =    24.3475   Anisotropy =     5.7365

  Exact polarizability: 151.852   0.001  91.550   3.369   0.002  44.848
 Approx polarizability: 227.307   0.002 166.522   6.322   0.007  70.832

                      1                      2                      3
                      A                      A                      A
 Frequencies --     39.7907                66.8190               123.4612
 Red. masses --      5.8311                11.3699                11.3698
 Frc consts  --      0.0054                 0.0299                 0.1021
 IR Inten    --      0.0267                 6.2731                 9.5735

                      4                      5                      6
                      A                      A                      A
 Frequencies --    161.8777               205.7860               268.6843
 Red. masses --     10.6628                 7.5458                11.8074
 Frc consts  --      0.1646                 0.1883                 0.5022
 IR Inten    --      0.9977                 0.0566                 1.7398

                      7                      8                      9
                      A                      A                      A
 Frequencies --    301.6745               342.6852               407.7875
 Red. masses --      8.9963                 9.8751                 2.9581
 Frc consts  --      0.4824                 0.6833                 0.2898
 IR Inten    --      0.3757                 0.9953                 0.0157

                     10                     11                     12
                      A                      A                      A
 Frequencies --    430.2621               475.9428               507.5816
 Red. masses --      7.9377                14.0845                10.5049
 Frc consts  --      0.8658                 1.8798                 1.5946
 IR Inten    --      4.5989                 8.9053                 6.5996

                     13                     14                     15
                      A                      A                      A
 Frequencies --    523.5121               565.1462               573.9920
 Red. masses --     10.1593                 7.3152                 3.6972
 Frc consts  --      1.6405                 1.3766                 0.7177
 IR Inten    --     49.8290                 0.0588                27.4737

                     16                     17                     18
                      A                      A                      A
 Frequencies --    641.0913               650.3478               723.7251
 Red. masses --     11.6039                 7.4738                 4.3098
 Frc consts  --      2.8099                 1.8624                 1.3300
 IR Inten    --    114.6297                 0.0289                 6.2095

                     19                     20                     21
                      A                      A                      A
 Frequencies --    800.2113               832.7808               858.3707
 Red. masses --      9.4955                 9.6486                 1.5426
 Frc consts  --      3.5824                 3.9426                 0.6697
 IR Inten    --     80.9593               191.7324                25.8075

                     22                     23                     24
                      A                      A                      A
 Frequencies --    860.6251               987.6575               992.4489
 Red. masses --      1.2414                 1.2794                 1.3576
 Frc consts  --      0.5417                 0.7353                 0.7878
 IR Inten    --      0.1169                 0.0764                 0.0390

                     25                     26                     27
                      A                      A                      A
 Frequencies --   1040.2395              1127.0335              1154.8716
 Red. masses --      3.5498                 3.4473                 1.3380
 Frc consts  --      2.2632                 2.5799                 1.0514
 IR Inten    --      3.0152                23.5170                 4.1196

                     28                     29                     30
                      A                      A                      A
 Frequencies --   1215.8889              1225.4804              1241.9332
 Red. masses --      3.7606                 1.6542                 3.0471
 Frc consts  --      3.2756                 1.4637                 2.7691
 IR Inten    --    188.9888                55.4476                 0.8364

                     31                     32                     33
                      A                      A                      A
 Frequencies --   1339.5549              1373.4706              1432.5027
 Red. masses --      1.2773                10.3466                17.0156
 Frc consts  --      1.3504                11.4997                20.5725
 IR Inten    --      5.6767                14.0724               155.7816

                     34                     35                     36
                      A                      A                      A
 Frequencies --   1451.3882              1544.8486              1641.1613
 Red. masses --      2.8837                 2.3381                 7.3433
 Frc consts  --      3.5791                 3.2877                11.6531
 IR Inten    --     36.9770                 3.8516                 2.7940

                     37                     38                     39
                      A                      A                      A
 Frequencies --   1674.1857              2377.1023              3239.8298
 Red. masses --      5.7656                12.6771                 1.0898
 Frc consts  --      9.5214                42.2053                 6.7395
 IR Inten    --      4.9591                 8.5340                 0.4170

                     40                     41                     42
                      A                      A                      A
 Frequencies --   3240.9161              3253.1558              3254.1255
 Red. masses --      1.0893                 1.0955                 1.0967
 Frc consts  --      6.7411                 6.8311                 6.8421
 IR Inten    --      1.2756                 1.0556                 2.1287

 - Thermochemistry -
 -------------------
 Temperature   298.150 Kelvin.  Pressure   1.00000 Atm.
 Atom     1 has atomic number  7 and mass  14.00307

 Molecular mass:   184.99468 amu.
 Principal axes and moments of inertia in atomic units:
                           1         2         3
     Eigenvalues --   696.032274291.819034607.42912
           X            1.00000  -0.00000   0.00315
           Y            0.00000   1.00000   0.00001
           Z           -0.00315  -0.00001   1.00000
 This molecule is an asymmetric top.
 Rotational symmetry number  1.
 Warning -- assumption of classical behavior for rotation
           may cause significant error
 Rotational temperatures (Kelvin)      0.12444     0.02018     0.01880
 Rotational constants (GHZ):           2.59290     0.42051     0.39170
 Zero-point vibrational energy     270176.3 (Joules/Mol)
                                   64.57369 (Kcal/Mol)
 Warning -- explicit consideration of  15 degrees of freedom as
           vibrations may cause significant error
 Vibrational temperatures:     57.25    96.14   177.63   232.91   296.08
          (Kelvin)            386.58   434.04   493.05   586.72   619.05
                              684.78   730.30   753.22   813.12   825.85
                              922.39   935.71  1041.28  1151.33  1198.19
                             1235.00  1238.25  1421.02  1427.91  1496.67
                             1621.55  1661.60  1749.39  1763.19  1786.86
                             1927.32  1976.12  2061.05  2088.22  2222.69
                             2361.27  2408.78  3420.12  4661.39  4662.96
                             4680.57  4681.96

 Zero-point correction=                           0.102905 (Hartree/Particle)
 Thermal correction to Energy=                    0.112999
 Thermal correction to Enthalpy=                  0.113943
 Thermal correction to Gibbs Free Energy=         0.065939
 Sum of electronic and zero-point Energies=           -971.648746
 Sum of electronic and thermal Energies=              -971.638651
 Sum of electronic and thermal Enthalpies=            -971.637707
 Sum of electronic and thermal Free Energies=         -971.685711

                     E (Thermal)             CV                S
                      KCal/Mol        Cal/Mol-Kelvin    Cal/Mol-Kelvin
 Total                   70.908             37.112            101.033
 Electronic               0.000              0.000              0.000
 Translational            0.889              2.981             41.552
 Rotational               0.889              2.981             30.999
 Vibrational             69.130             31.151             28.482
 Vibration     1          0.594              1.981              5.269
 Vibration     2          0.598              1.970              4.245
 Vibration     3          0.610              1.929              3.045
 Vibration     4          0.622              1.889              2.528
 Vibration     5          0.640              1.832              2.081
 Vibration     6          0.673              1.731              1.605
 Vibration     7          0.694              1.671              1.408
 Vibration     8          0.722              1.590              1.200
 Vibration     9          0.772              1.453              0.934
 Vibration    10          0.791              1.404              0.858
 Vibration    11          0.833              1.303              0.721
 Vibration    12          0.863              1.233              0.639
 Vibration    13          0.878              1.198              0.602
 Vibration    14          0.921              1.107              0.514
 Vibration    15          0.930              1.088              0.497

 Optimization completed.
    -- Stationary point found.
 Normal termination of Gaussian 16 at Fri Feb 16 15:16:04 2024.
 Gaussian 16:  ES64L-G16RevA.03 25-Dec-2016

 ----------------------------------------------------------------------
 # TD(NStates=10, Root=1) APFD/6-31G* volume pop=NPA density=current Ge
 om=AllCheck Guess=Read
 ----------------------------------------------------------------------

 Structure from the checkpoint file:  "YKZXWWMBQGHLNP-UHFFFAOYSA-N_conf_0_2.chk"
 ----------------------------------
 YKZXWWMBQGHLNP-UHFFFAOYSA-N_conf_0
 ----------------------------------
 Charge =  0 Multiplicity = 1

                         Standard orientation:
 ---------------------------------------------------------------------
 Center     Atomic      Atomic             Coordinates (Angstroms)
 Number     Number       Type             X           Y           Z
 ---------------------------------------------------------------------
      1          7           0       -4.977483   -0.000000   -0.059853
      2          6           0       -3.816150   -0.000000   -0.028957
      3          6           0       -2.384739    0.000003    0.008153
      4          6           0       -1.692579   -1.219272    0.029481
      5          6           0       -0.304395   -1.221238    0.066328
      6          6           0        0.365751    0.000019    0.078720
      7         16           0        2.134425   -0.000076    0.122101
      8          8           0        2.612863   -1.269232    0.615356
      9          8           0        2.613142    1.268410    0.616780
     10          9           0        2.426674    0.000803   -1.458098
     11          6           0       -0.304410    1.221277    0.066383
     12          6           0       -1.692582    1.219294    0.029450
     13          1           0       -2.246040   -2.152913    0.020986
     14          1           0        0.255123   -2.150979    0.095899
     15          1           0        0.255065    2.151044    0.095997
     16          1           0       -2.246054    2.152927    0.020923
 ---------------------------------------------------------------------

 SCF Done:  E(RAPFD) =  -971.751650292     A.U. after    1 cycles

 Excitation energies and oscillator strengths:

 Excited State   1:      Singlet-A      5.0628 eV  244.89 nm  f=0.0207  <S**2>=0.000
      46 -> 48         0.60509
      47 -> 49         0.36048
 This state for optimization and/or second-order correction.
 Total Energy, E(TD-HF/TD-DFT) =  -971.565594613
 Copying the excited state density for this state as the 1-particle RhoCI density.

 Excited State   2:      Singlet-A      5.3982 eV  229.68 nm  f=0.3784  <S**2>=0.000
      46 -> 49        -0.15864
      47 -> 48         0.68069

 Excited State   3:      Singlet-A      5.8568 eV  211.69 nm  f=0.0004  <S**2>=0.000
      42 -> 48        -0.13739
      44 -> 48         0.55301
      45 -> 48         0.40022

 Excited State   4:      Singlet-A      5.9808 eV  207.30 nm  f=0.0015  <S**2>=0.000
      42 -> 48         0.25443
      44 -> 48        -0.33298
      45 -> 48         0.55894

 Excited State   5:      Singlet-A      6.2367 eV  198.80 nm  f=0.0014  <S**2>=0.000
      43 -> 48         0.69280

 Excited State   6:      Singlet-A      6.3891 eV  194.06 nm  f=0.0010  <S**2>=0.000
      42 -> 48         0.61843
      44 -> 48         0.25141
      45 -> 48        -0.13212
      47 -> 49        -0.14186

 Excited State   7:      Singlet-A      6.6312 eV  186.97 nm  f=0.2295  <S**2>=0.000
      42 -> 48         0.14362
      46 -> 48        -0.33743
      47 -> 49         0.58302

 Excited State   8:      Singlet-A      6.8393 eV  181.28 nm  f=0.1867  <S**2>=0.000
      41 -> 48         0.46456
      44 -> 51         0.11046
      46 -> 49         0.49962

 Excited State   9:      Singlet-A      6.9218 eV  179.12 nm  f=0.0251  <S**2>=0.000
      40 -> 48         0.67214
      41 -> 48        -0.13388
      46 -> 49         0.13806

 Excited State  10:      Singlet-A      7.1227 eV  174.07 nm  f=0.0001  <S**2>=0.000
      44 -> 49         0.10436
      45 -> 49         0.69719

 The electronic state is 1-A.
 Alpha  occ. eigenvalues --  -89.25221 -24.79911 -19.23288 -19.23287 -14.39682
 Alpha  occ. eigenvalues --  -10.30357 -10.30121 -10.28041 -10.28040 -10.27906
 Alpha  occ. eigenvalues --  -10.27906 -10.27717  -8.23080  -6.18013  -6.17682
 Alpha  occ. eigenvalues --   -6.17578  -1.29101  -1.15348  -1.07352  -0.95534
 Alpha  occ. eigenvalues --   -0.93471  -0.85360  -0.82612  -0.75017  -0.68502
 Alpha  occ. eigenvalues --   -0.67191  -0.61359  -0.59936  -0.55400  -0.54177
 Alpha  occ. eigenvalues --   -0.51725  -0.50952  -0.49110  -0.48359  -0.46492
 Alpha  occ. eigenvalues --   -0.45551  -0.44390  -0.41812  -0.41129  -0.39200
 Alpha  occ. eigenvalues --   -0.38800  -0.36964  -0.36754  -0.36456  -0.35099
 Alpha  occ. eigenvalues --   -0.31962  -0.31140
 Alpha virt. eigenvalues --   -0.09886  -0.05726   0.01048   0.01520   0.03060
 Alpha virt. eigenvalues --    0.06624   0.09120   0.09695   0.11090   0.11809
 Alpha virt. eigenvalues --    0.14158   0.14783   0.17710   0.18298   0.23941

 Mulliken charges:
               1
     1  N   -0.472039
     2  C    0.252902
     3  C    0.073642
     4  C   -0.137875
     5  C   -0.157942
     6  C   -0.212001
     7  S    1.248002
     8  O   -0.480240
     9  O   -0.480213
    10  F   -0.298023
    11  C   -0.157931
    12  C   -0.137870
    13  H    0.231320
    14  H    0.248487
    15  H    0.248459
    16  H    0.231323
 Sum of Mulliken charges =  -0.00000

 Dipole moment (field-independent basis, Debye):
    X=             -0.6268    Y=              0.0007    Z=             -0.5413  Tot=              0.8282
 Quadrupole moment (field-independent basis, Debye-Ang):
   XX=           -108.5254   YY=            -66.1282   ZZ=            -75.4087
   XY=              0.0012   XZ=             -2.8541   YZ=             -0.0016

 Summary of Natural Population Analysis:

                                       Natural Population
                Natural  -----------------------------------------------
    Atom  No    Charge         Core      Valence    Rydberg      Total
 -----------------------------------------------------------------------
      N    1   -0.28751      1.99966     5.26570    0.02215     7.28751
      C    2    0.24133      1.99940     3.72561    0.03367     5.75867
      C    3   -0.18734      1.99891     4.17346    0.01498     6.18734
      C    4   -0.13913      1.99909     4.12344    0.01659     6.13913
      C    5   -0.16452      1.99904     4.14566    0.01982     6.16452
      C    6   -0.39139      1.99875     4.36505    0.02760     6.39139
      S    7    2.42476      9.99870     3.36852    0.20802    13.57524
      O    8   -0.89965      1.99988     6.87589    0.02388     8.89965
      O    9   -0.89962      1.99988     6.87586    0.02388     8.89962
      F   10   -0.50345      1.99997     7.49359    0.00989     9.50345
      C   11   -0.16453      1.99904     4.14568    0.01982     6.16453
      C   12   -0.13910      1.99909     4.12342    0.01659     6.13910
      H   13    0.27166      0.00000     0.72769    0.00064     0.72834
      H   14    0.28342      0.00000     0.71540    0.00118     0.71658
      H   15    0.28340      0.00000     0.71542    0.00118     0.71660
      H   16    0.27166      0.00000     0.72770    0.00064     0.72834
 =======================================================================
   * Total *    0.00000     31.99140    61.56808    0.44053    94.00000

 Normal termination of Gaussian 16 at Fri Feb 16 15:21:21 2024.
