 Gaussian 16, Revision A.03,

 --------------------------------
 # opt=CalcFc APFD/6-31G* scf=xqc
 --------------------------------

 ----------------------------------
 GVVHDCOFBIOZJP-UHFFFAOYSA-N_conf_0
 ----------------------------------
 Symbolic Z-matrix:
 Charge =  0 Multiplicity = 1

 SCF Done:  E(RAPFD) =  -1049.12002005     A.U. after   15 cycles
 SCF Done:  E(RAPFD) =  -1049.12930660     A.U. after   15 cycles
 SCF Done:  E(RAPFD) =  -1049.12922655     A.U. after   15 cycles
 SCF Done:  E(RAPFD) =  -1049.07810472     A.U. after   14 cycles
 SCF Done:  E(RAPFD) =  -1049.08513711     A.U. after   14 cycles
 SCF Done:  E(RAPFD) =  -1049.12955709     A.U. after   10 cycles
 SCF Done:  E(RAPFD) =  -1049.12969343     A.U. after   13 cycles
 SCF Done:  E(RAPFD) =  -1049.12972946     A.U. after   11 cycles
 SCF Done:  E(RAPFD) =  -1049.12975779     A.U. after   12 cycles
 SCF Done:  E(RAPFD) =  -1049.12976615     A.U. after   11 cycles
 SCF Done:  E(RAPFD) =  -1049.12976919     A.U. after   10 cycles
 SCF Done:  E(RAPFD) =  -1049.12977139     A.U. after   11 cycles
 SCF Done:  E(RAPFD) =  -1049.12977154     A.U. after    7 cycles
 SCF Done:  E(RAPFD) =  -1049.12977160     A.U. after    9 cycles
 Optimization completed.
    -- Stationary point found.
 Normal termination of Gaussian 16 at Fri Feb 16 15:44:55 2024.

 ----------------------------------------------------------------------
 # freq APFD/6-31G* volume NMR pop=NPA density=current Geom=AllCheck Gu
 ess=Read
 ----------------------------------------------------------------------

 Structure from the checkpoint file:  "GVVHDCOFBIOZJP-UHFFFAOYSA-N_conf_0_1.chk"
 ----------------------------------
 GVVHDCOFBIOZJP-UHFFFAOYSA-N_conf_0
 ----------------------------------
 Charge =  0 Multiplicity = 1

 SCF Done:  E(RAPFD) =  -1049.12977160     A.U. after    1 cycles

      1  O    Isotropic =    81.6576   Anisotropy =    73.4119

      2  S    Isotropic =   233.3153   Anisotropy =   309.4085

      3  O    Isotropic =    81.6502   Anisotropy =    73.4064

      4  F    Isotropic =   136.6381   Anisotropy =   337.1728

      5  C    Isotropic =    53.7518   Anisotropy =   112.2670

      6  C    Isotropic =    82.8581   Anisotropy =   147.1447

      7  C    Isotropic =    50.6243   Anisotropy =   155.5073

      8  N    Isotropic =   -72.8101   Anisotropy =   538.3846

      9  C    Isotropic =    50.9300   Anisotropy =   182.0504

     10  C    Isotropic =    66.7765   Anisotropy =   152.6974

     11  C    Isotropic =    68.3241   Anisotropy =   172.6778

     12  C    Isotropic =    69.4107   Anisotropy =   173.3070

     13  C    Isotropic =    73.3175   Anisotropy =   159.1403

     14  C    Isotropic =    78.5724   Anisotropy =   182.3816

     15  H    Isotropic =    24.6741   Anisotropy =     8.5889

     16  H    Isotropic =    22.9770   Anisotropy =     6.5030

     17  H    Isotropic =    23.7857   Anisotropy =     5.6488

     18  H    Isotropic =    24.1347   Anisotropy =     4.9189

     19  H    Isotropic =    24.2323   Anisotropy =     5.8523

     20  H    Isotropic =    23.7416   Anisotropy =    10.9786

  Exact polarizability: 151.330 -14.871 147.034   0.002   0.001  54.266
 Approx polarizability: 240.889 -27.464 265.144   0.005   0.001  94.631

                      1                      2                      3
                      A                      A                      A
 Frequencies --     14.2074                78.0201               154.5519
 Red. masses --     10.9056                 5.4602                 8.4822
 Frc consts  --      0.0013                 0.0196                 0.1194
 IR Inten    --      0.5422                 1.2048                 3.5333

                      4                      5                      6
                      A                      A                      A
 Frequencies --    172.2646               177.3982               271.4794
 Red. masses --      4.5934                 5.4151                13.7782
 Frc consts  --      0.0803                 0.1004                 0.5983
 IR Inten    --      5.1288                 0.0165                 0.4411

                      7                      8                      9
                      A                      A                      A
 Frequencies --    296.2527               302.9886               404.4962
 Red. masses --      7.4160                 9.4550                 6.4024
 Frc consts  --      0.3835                 0.5114                 0.6172
 IR Inten    --      0.5522                 0.9792                 0.5685

                     10                     11                     12
                      A                      A                      A
 Frequencies --    429.3746               456.1263               473.3370
 Red. masses --      6.6179                 4.3178                 3.2405
 Frc consts  --      0.7189                 0.5293                 0.4278
 IR Inten    --     10.3068                16.6078                 0.0034

                     13                     14                     15
                      A                      A                      A
 Frequencies --    494.7370               539.6280               547.7679
 Red. masses --      9.0321                 7.9865                 8.5535
 Frc consts  --      1.3025                 1.3702                 1.5121
 IR Inten    --      2.8688                 6.6911                30.2188

                     16                     17                     18
                      A                      A                      A
 Frequencies --    588.9496               590.3686               646.3267
 Red. masses --     11.8759                 4.4255                 3.9186
 Frc consts  --      2.4270                 0.9088                 0.9645
 IR Inten    --     97.9199                 2.7104                 0.0716

                     19                     20                     21
                      A                      A                      A
 Frequencies --    695.4371               775.4443               789.9798
 Red. masses --      7.3263                 1.3936                 3.4298
 Frc consts  --      2.0876                 0.4937                 1.2611
 IR Inten    --     12.5338                57.0070                 0.2606

                     22                     23                     24
                      A                      A                      A
 Frequencies --    797.3337               831.8892               853.4605
 Red. masses --     13.2689                 5.8041                 7.7396
 Frc consts  --      4.9701                 2.3666                 3.3215
 IR Inten    --    136.0820                 1.2759                62.2385

                     25                     26                     27
                      A                      A                      A
 Frequencies --    865.1182               881.7759               970.3566
 Red. masses --      1.2436                 1.6215                 1.3446
 Frc consts  --      0.5484                 0.7428                 0.7459
 IR Inten    --     16.8607                10.3238                 0.3730

                     28                     29                     30
                      A                      A                      A
 Frequencies --    985.9933               999.6845              1011.0231
 Red. masses --      1.4088                 7.1529                 1.3053
 Frc consts  --      0.8070                 4.2117                 0.7861
 IR Inten    --      0.3052                23.8914                 0.3053

                     31                     32                     33
                      A                      A                      A
 Frequencies --   1066.1035              1111.8532              1176.7162
 Red. masses --      2.2656                 2.3201                 1.5397
 Frc consts  --      1.5171                 1.6899                 1.2561
 IR Inten    --      2.4564                 6.2265                 2.0949

                     34                     35                     36
                      A                      A                      A
 Frequencies --   1205.7073              1213.2156              1248.4320
 Red. masses --      2.1667                 2.4042                 1.9482
 Frc consts  --      1.8558                 2.0850                 1.7890
 IR Inten    --     38.4677                90.4763                32.8171

                     37                     38                     39
                      A                      A                      A
 Frequencies --   1282.1733              1311.0934              1376.2546
 Red. masses --      2.0474                 1.5705                 4.7028
 Frc consts  --      1.9831                 1.5906                 5.2481
 IR Inten    --      1.6887                 0.7729                 4.0678

                     40                     41                     42
                      A                      A                      A
 Frequencies --   1413.5925              1424.8620              1437.4723
 Red. masses --      3.0576                20.4775                 2.2037
 Frc consts  --      3.5999                24.4947                 2.6828
 IR Inten    --     17.7992               216.0395                 3.2423

                     43                     44                     45
                      A                      A                      A
 Frequencies --   1479.3433              1518.2841              1566.3032
 Red. masses --      2.5171                 2.6796                 3.3034
 Frc consts  --      3.2456                 3.6394                 4.7749
 IR Inten    --      4.4553                 3.7115                31.7162

                     46                     47                     48
                      A                      A                      A
 Frequencies --   1634.0633              1666.0866              1694.3867
 Red. masses --      7.2066                 6.9603                 5.8994
 Frc consts  --     11.3375                11.3834                 9.9789
 IR Inten    --     11.4160                 9.4942                 1.7650

                     49                     50                     51
                      A                      A                      A
 Frequencies --   3198.7125              3213.6403              3226.3338
 Red. masses --      1.0911                 1.0869                 1.0902
 Frc consts  --      6.5773                 6.6135                 6.6862
 IR Inten    --     20.3420                 2.6776                 7.1632

                     52                     53                     54
                      A                      A                      A
 Frequencies --   3239.9580              3243.8437              3272.4350
 Red. masses --      1.0942                 1.0972                 1.0932
 Frc consts  --      6.7674                 6.8020                 6.8974
 IR Inten    --      3.5137                 5.8254                 1.3537

 - Thermochemistry -
 -------------------
 Temperature   298.150 Kelvin.  Pressure   1.00000 Atm.
 Atom     1 has atomic number  8 and mass  15.99491

 Molecular mass:   211.01033 amu.
 Principal axes and moments of inertia in atomic units:
                           1         2         3
     Eigenvalues --  1579.983973481.399664697.74922
           X            0.99980  -0.02019   0.00000
           Y            0.02019   0.99980   0.00000
           Z           -0.00000  -0.00000   1.00000
 This molecule is an asymmetric top.
 Rotational symmetry number  1.
 Warning -- assumption of classical behavior for rotation
           may cause significant error
 Rotational temperatures (Kelvin)      0.05482     0.02488     0.01844
 Rotational constants (GHZ):           1.14225     0.51840     0.38417
 Zero-point vibrational energy     366754.9 (Joules/Mol)
                                   87.65653 (Kcal/Mol)
 Warning -- explicit consideration of  17 degrees of freedom as
           vibrations may cause significant error
 Vibrational temperatures:     20.44   112.25   222.37   247.85   255.24
          (Kelvin)            390.60   426.24   435.93   581.98   617.77
                              656.26   681.03   711.82   776.40   788.12
                              847.37   849.41   929.92  1000.58  1115.69
                             1136.60  1147.19  1196.90  1227.94  1244.71
                             1268.68  1396.13  1418.62  1438.32  1454.64
                             1533.89  1599.71  1693.03  1734.74  1745.55
                             1796.22  1844.76  1886.37  1980.12  2033.84
                             2050.06  2068.20  2128.45  2184.47  2253.56
                             2351.05  2397.13  2437.84  4602.23  4623.71
                             4641.97  4661.58  4667.17  4708.30

 Zero-point correction=                           0.139690 (Hartree/Particle)
 Thermal correction to Energy=                    0.150477
 Thermal correction to Enthalpy=                  0.151421
 Thermal correction to Gibbs Free Energy=         0.101286
 Sum of electronic and zero-point Energies=          -1048.990082
 Sum of electronic and thermal Energies=             -1048.979295
 Sum of electronic and thermal Enthalpies=           -1048.978351
 Sum of electronic and thermal Free Energies=        -1049.028485

                     E (Thermal)             CV                S
                      KCal/Mol        Cal/Mol-Kelvin    Cal/Mol-Kelvin
 Total                   94.426             41.821            105.517
 Electronic               0.000              0.000              0.000
 Translational            0.889              2.981             41.944
 Rotational               0.889              2.981             31.625
 Vibrational             92.648             35.860             31.949
 Vibration     1          0.593              1.986              7.313
 Vibration     2          0.599              1.964              3.940
 Vibration     3          0.620              1.898              2.615
 Vibration     4          0.626              1.877              2.411
 Vibration     5          0.628              1.870              2.356
 Vibration     6          0.675              1.726              1.587
 Vibration     7          0.690              1.681              1.438
 Vibration     8          0.694              1.668              1.400
 Vibration     9          0.770              1.460              0.946
 Vibration    10          0.791              1.406              0.861
 Vibration    11          0.814              1.347              0.777
 Vibration    12          0.830              1.309              0.728
 Vibration    13          0.850              1.262              0.671
 Vibration    14          0.895              1.162              0.566
 Vibration    15          0.903              1.145              0.549
 Vibration    16          0.946              1.055              0.469
 Vibration    17          0.948              1.052              0.467

 Optimization completed.
    -- Stationary point found.
 Normal termination of Gaussian 16 at Fri Feb 16 15:49:42 2024.
 Gaussian 16:  ES64L-G16RevA.03 25-Dec-2016

 ----------------------------------------------------------------------
 # TD(NStates=10, Root=1) APFD/6-31G* volume pop=NPA density=current Ge
 om=AllCheck Guess=Read
 ----------------------------------------------------------------------

 Structure from the checkpoint file:  "GVVHDCOFBIOZJP-UHFFFAOYSA-N_conf_0_2.chk"
 ----------------------------------
 GVVHDCOFBIOZJP-UHFFFAOYSA-N_conf_0
 ----------------------------------
 Charge =  0 Multiplicity = 1

                         Standard orientation:
 ---------------------------------------------------------------------
 Center     Atomic      Atomic             Coordinates (Angstroms)
 Number     Number       Type             X           Y           Z
 ---------------------------------------------------------------------
      1          8           0       -2.113758   -1.165943   -1.261539
      2         16           0       -1.980946   -0.476878    0.000011
      3          8           0       -2.113521   -1.165904    1.261608
      4          9           0       -3.089021    0.688478    0.000061
      5          6           0       -0.512338    0.526099   -0.000109
      6          6           0       -0.592764    1.895033    0.000003
      7          6           0        0.619782    2.625354    0.000017
      8          7           0        1.810019    2.076088   -0.000011
      9          6           0        1.893092    0.719238   -0.000048
     10          6           0        3.185428    0.140533    0.000005
     11          6           0        3.335988   -1.224447    0.000045
     12          6           0        2.200603   -2.066600    0.000021
     13          6           0        0.930618   -1.540596   -0.000061
     14          6           0        0.744929   -0.136363   -0.000097
     15          1           0       -1.544244    2.412560    0.000040
     16          1           0        0.584957    3.713794    0.000059
     17          1           0        4.034599    0.817344    0.000029
     18          1           0        4.329938   -1.664148    0.000099
     19          1           0        2.332661   -3.145277    0.000055
     20          1           0        0.074473   -2.207886   -0.000142
 ---------------------------------------------------------------------

 SCF Done:  E(RAPFD) =  -1049.12977160     A.U. after    1 cycles

 Excitation energies and oscillator strengths:

 Excited State   1:      Singlet-A      4.0938 eV  302.86 nm  f=0.0021  <S**2>=0.000
      52 -> 55         0.70299
 This state for optimization and/or second-order correction.
 Total Energy, E(TD-HF/TD-DFT) =  -1048.97932718
 Copying the excited state density for this state as the 1-particle RhoCI density.

 Excited State   2:      Singlet-A      4.1843 eV  296.31 nm  f=0.0531  <S**2>=0.000
      53 -> 56         0.10464
      54 -> 55         0.69030

 Excited State   3:      Singlet-A      4.5132 eV  274.72 nm  f=0.0386  <S**2>=0.000
      53 -> 55         0.58656
      54 -> 56        -0.38817

 Excited State   4:      Singlet-A      5.3276 eV  232.72 nm  f=0.0000  <S**2>=0.000
      52 -> 56         0.70237

 Excited State   5:      Singlet-A      5.8017 eV  213.70 nm  f=0.3807  <S**2>=0.000
      51 -> 55         0.42130
      53 -> 55         0.27206
      53 -> 56        -0.11806
      53 -> 57         0.18131
      54 -> 56         0.42599
      54 -> 57         0.10335

 Excited State   6:      Singlet-A      5.9138 eV  209.65 nm  f=0.2376  <S**2>=0.000
      51 -> 55         0.43142
      53 -> 55        -0.22445
      53 -> 56        -0.22483
      53 -> 57        -0.18054
      54 -> 56        -0.31040
      54 -> 57         0.25001

 Excited State   7:      Singlet-A      6.1254 eV  202.41 nm  f=0.0240  <S**2>=0.000
      50 -> 55         0.55508
      51 -> 55        -0.18448
      53 -> 56        -0.31520
      54 -> 57         0.22737

 Excited State   8:      Singlet-A      6.3257 eV  196.00 nm  f=0.1157  <S**2>=0.000
      47 -> 55        -0.16208
      50 -> 55         0.41650
      51 -> 55         0.26408
      53 -> 56         0.38412
      53 -> 57        -0.11522
      54 -> 57        -0.21201

 Excited State   9:      Singlet-A      6.3845 eV  194.20 nm  f=0.0000  <S**2>=0.000
      46 -> 55         0.10791
      49 -> 55         0.57630
      52 -> 57         0.37445

 Excited State  10:      Singlet-A      6.4569 eV  192.02 nm  f=0.0016  <S**2>=0.000
      49 -> 55        -0.36212
      52 -> 57         0.56781
      54 -> 58        -0.17804

 The electronic state is 1-A.
 Alpha  occ. eigenvalues --  -89.24706 -24.80134 -19.22600 -19.22600 -14.39395
 Alpha  occ. eigenvalues --  -10.29510 -10.27733 -10.27712 -10.26773 -10.26351
 Alpha  occ. eigenvalues --  -10.24422 -10.24299 -10.24204 -10.23681  -8.22556
 Alpha  occ. eigenvalues --   -6.17523  -6.17137  -6.17040  -1.29120  -1.14889
 Alpha  occ. eigenvalues --   -1.06516  -0.99409  -0.89538  -0.87234  -0.79654
 Alpha  occ. eigenvalues --   -0.78525  -0.73934  -0.67579  -0.67296  -0.64255
 Alpha  occ. eigenvalues --   -0.58721  -0.56623  -0.55997  -0.54022  -0.52511
 Alpha  occ. eigenvalues --   -0.50638  -0.49526  -0.47056  -0.46423  -0.46220
 Alpha  occ. eigenvalues --   -0.45672  -0.45159  -0.44832  -0.40288  -0.38960
 Alpha  occ. eigenvalues --   -0.38370  -0.37913  -0.37635  -0.36218  -0.34792
 Alpha  occ. eigenvalues --   -0.33210  -0.28844  -0.28541  -0.26540
 Alpha virt. eigenvalues --   -0.08708  -0.04080  -0.00728   0.00662   0.04434
 Alpha virt. eigenvalues --    0.06516   0.08861   0.09732   0.13171   0.13925
 Alpha virt. eigenvalues --    0.14412   0.17134   0.17846   0.18337   0.20149

 Mulliken charges:
               1
     1  O   -0.481386
     2  S    1.284559
     3  O   -0.481382
     4  F   -0.301379
     5  C   -0.262807
     6  C   -0.228280
     7  C    0.035344
     8  N   -0.435211
     9  C    0.290623
    10  C   -0.208363
    11  C   -0.168601
    12  C   -0.178577
    13  C   -0.235803
    14  C    0.147819
    15  H    0.224779
    16  H    0.225291
    17  H    0.188903
    18  H    0.179590
    19  H    0.180542
    20  H    0.224342
 Sum of Mulliken charges =  -0.00000

 Dipole moment (field-independent basis, Debye):
    X=              3.8753    Y=              3.3567    Z=              0.0001  Tot=              5.1269
 Quadrupole moment (field-independent basis, Debye-Ang):
   XX=            -82.3969   YY=            -72.4730   ZZ=            -92.9540
   XY=             -5.2953   XZ=              0.0001   YZ=              0.0004

 Summary of Natural Population Analysis:

                                       Natural Population
                Natural  -----------------------------------------------
    Atom  No    Charge         Core      Valence    Rydberg      Total
 -----------------------------------------------------------------------
      O    1   -0.88662      1.99988     6.86268    0.02406     8.88662
      S    2    2.43335      9.99867     3.36164    0.20635    13.56665
      O    3   -0.88662      1.99988     6.86268    0.02406     8.88662
      F    4   -0.50236      1.99997     7.49318    0.00921     9.50236
      C    5   -0.38473      1.99858     4.36120    0.02494     6.38473
      C    6   -0.29848      1.99894     4.28222    0.01731     6.29848
      C    7   -0.04415      1.99917     4.02321    0.02177     6.04415
      N    8   -0.12786      1.99891     5.11514    0.01381     7.12786
      C    9    0.14368      1.99892     3.83867    0.01873     5.85632
      C   10   -0.27896      1.99904     4.26525    0.01467     6.27896
      C   11   -0.23023      1.99910     4.21713    0.01399     6.23023
      C   12   -0.23651      1.99911     4.22301    0.01439     6.23651
      C   13   -0.25175      1.99903     4.23875    0.01396     6.25175
      C   14   -0.05646      1.99892     4.04178    0.01576     6.05646
      H   15    0.29086      0.00000     0.70814    0.00100     0.70914
      H   16    0.27470      0.00000     0.72475    0.00054     0.72530
      H   17    0.25965      0.00000     0.73957    0.00078     0.74035
      H   18    0.25466      0.00000     0.74465    0.00070     0.74534
      H   19    0.25455      0.00000     0.74476    0.00069     0.74545
      H   20    0.27329      0.00000     0.72502    0.00169     0.72671
 =======================================================================
   * Total *   -0.00000     35.98814    71.57344    0.43841   108.00000

 Normal termination of Gaussian 16 at Fri Feb 16 15:56:24 2024.
