 Gaussian 16, Revision A.03,

 --------------------------------
 # opt=CalcFc APFD/6-31G* scf=xqc
 --------------------------------

 ----------------------------------
 BWRLFZKXJHLHOU-UHFFFAOYSA-N_conf_0
 ----------------------------------
 Symbolic Z-matrix:
 Charge =  0 Multiplicity = 1

 SCF Done:  E(RAPFD) =  -1098.41426155     A.U. after   15 cycles
 SCF Done:  E(RAPFD) =  -1098.42365830     A.U. after   14 cycles
 SCF Done:  E(RAPFD) =  -1098.42358358     A.U. after   13 cycles
 SCF Done:  E(RAPFD) =  -1098.42381703     A.U. after   12 cycles
 SCF Done:  E(RAPFD) =  -1098.42387785     A.U. after   12 cycles
 SCF Done:  E(RAPFD) =  -1098.42391320     A.U. after   13 cycles
 SCF Done:  E(RAPFD) =  -1098.42394319     A.U. after   11 cycles
 SCF Done:  E(RAPFD) =  -1098.42394537     A.U. after   11 cycles
 SCF Done:  E(RAPFD) =  -1098.42394842     A.U. after   11 cycles
 SCF Done:  E(RAPFD) =  -1098.42394843     A.U. after   10 cycles
 SCF Done:  E(RAPFD) =  -1098.42394855     A.U. after    8 cycles
 Optimization completed.
    -- Stationary point found.
 Normal termination of Gaussian 16 at Sun Jan 28 15:19:45 2024.

 ----------------------------------------------------------------------
 # freq APFD/6-31G* volume NMR pop=NPA density=current Geom=AllCheck Gu
 ess=Read
 ----------------------------------------------------------------------

 Structure from the checkpoint file:  "BWRLFZKXJHLHOU-UHFFFAOYSA-N_conf_0_1.chk"
 ----------------------------------
 BWRLFZKXJHLHOU-UHFFFAOYSA-N_conf_0
 ----------------------------------
 Charge =  0 Multiplicity = 1

 SCF Done:  E(RAPFD) =  -1098.42394855     A.U. after    1 cycles

      1  F    Isotropic =   131.5181   Anisotropy =   331.4263

      2  S    Isotropic =   237.1471   Anisotropy =   330.7572

      3  C    Isotropic =    38.3957   Anisotropy =    90.0987

      4  N    Isotropic =   -14.3053   Anisotropy =   421.0902

      5  C    Isotropic =    38.8963   Anisotropy =   130.9205

      6  N    Isotropic =     8.6598   Anisotropy =   351.0748

      7  C    Isotropic =    50.7341   Anisotropy =    89.9910

      8  N    Isotropic =   120.4275   Anisotropy =   101.3773

      9  C    Isotropic =   162.6031   Anisotropy =    49.4334

     10  C    Isotropic =    73.2450   Anisotropy =   141.9929

     11  C    Isotropic =    60.9374   Anisotropy =   146.7707

     12  N    Isotropic =   -13.9575   Anisotropy =   465.4909

     13  O    Isotropic =    98.8137   Anisotropy =    64.2249

     14  O    Isotropic =   115.6079   Anisotropy =    70.0455

     15  H    Isotropic =    24.3749   Anisotropy =     4.6771

     16  H    Isotropic =    28.3965   Anisotropy =     9.7066

     17  H    Isotropic =    28.3941   Anisotropy =     8.1330

     18  H    Isotropic =    28.3934   Anisotropy =     9.7296

     19  H    Isotropic =    23.3169   Anisotropy =     7.3739

  Exact polarizability: 157.268   5.650 103.786   1.610  -1.954  57.663
 Approx polarizability: 220.054  13.974 196.782   2.123  -6.418  95.231

                      1                      2                      3
                      A                      A                      A
 Frequencies --     15.9170                66.3470               100.8017
 Red. masses --      9.9666                 6.3716                 1.0993
 Frc consts  --      0.0015                 0.0165                 0.0066
 IR Inten    --      1.6081                 0.6187                 0.0041

                      4                      5                      6
                      A                      A                      A
 Frequencies --    137.0143               158.4545               219.5767
 Red. masses --      8.6490                 3.6739                 4.5095
 Frc consts  --      0.0957                 0.0543                 0.1281
 IR Inten    --      0.6101                 1.3109                 1.0624

                      7                      8                      9
                      A                      A                      A
 Frequencies --    227.4849               250.1222               288.4665
 Red. masses --      7.1163                 7.3025                11.1488
 Frc consts  --      0.2170                 0.2692                 0.5466
 IR Inten    --      0.0061                 0.5608                 1.2374

                     10                     11                     12
                      A                      A                      A
 Frequencies --    335.4802               384.3314               432.1858
 Red. masses --      6.9726                 9.3633                 4.6647
 Frc consts  --      0.4624                 0.8149                 0.5133
 IR Inten    --      2.8000                 1.0568                 0.5752

                     13                     14                     15
                      A                      A                      A
 Frequencies --    468.9365               488.6129               544.4998
 Red. masses --      9.5088                11.5871                 5.7491
 Frc consts  --      1.2320                 1.6299                 1.0043
 IR Inten    --     15.3314                15.8085                11.2054

                     16                     17                     18
                      A                      A                      A
 Frequencies --    569.6722               610.6541               624.9786
 Red. masses --     11.7005                 7.6588                 3.9756
 Frc consts  --      2.2372                 1.6827                 0.9149
 IR Inten    --     82.7947                11.3867                15.2813

                     19                     20                     21
                      A                      A                      A
 Frequencies --    655.5970               722.3233               796.4315
 Red. masses --      7.6329                11.7167                 9.5323
 Frc consts  --      1.9329                 3.6018                 3.5624
 IR Inten    --     97.4054                 2.9337                59.5930

                     22                     23                     24
                      A                      A                      A
 Frequencies --    817.4177               829.5455               832.7889
 Red. masses --     10.0801                 8.6184                13.8177
 Frc consts  --      3.9683                 3.4943                 5.6462
 IR Inten    --      5.0281                32.3208               124.8927

                     25                     26                     27
                      A                      A                      A
 Frequencies --    904.3330               947.3608               967.5300
 Red. masses --      1.4327                 1.4290                 7.2028
 Frc consts  --      0.6903                 0.7556                 3.9726
 IR Inten    --      9.0918                 7.1069                19.4619

                     28                     29                     30
                      A                      A                      A
 Frequencies --   1075.2460              1134.1010              1158.9783
 Red. masses --      1.9127                 4.7165                 1.3060
 Frc consts  --      1.3029                 3.5742                 1.0336
 IR Inten    --     19.9773                 7.1827                 0.0380

                     31                     32                     33
                      A                      A                      A
 Frequencies --   1194.7255              1241.0818              1266.7960
 Red. masses --      5.6369                 2.8352                 2.2115
 Frc consts  --      4.7406                 2.5730                 2.0910
 IR Inten    --    148.9090                36.5867                35.3461

                     34                     35                     36
                      A                      A                      A
 Frequencies --   1317.4007              1369.7055              1376.7483
 Red. masses --      2.9789                 4.3358                 2.8215
 Frc consts  --      3.0461                 4.7927                 3.1509
 IR Inten    --     35.0151                21.4294                10.8922

                     37                     38                     39
                      A                      A                      A
 Frequencies --   1420.7144              1434.5842              1470.9331
 Red. masses --      5.7744                20.6183                 1.7486
 Frc consts  --      6.8671                25.0008                 2.2291
 IR Inten    --     93.2863               200.4064                72.1875

                     40                     41                     42
                      A                      A                      A
 Frequencies --   1485.7236              1501.3092              1507.1829
 Red. masses --      4.4062                 3.2285                 1.0378
 Frc consts  --      5.7305                 4.2874                 1.3890
 IR Inten    --     21.7871                42.1268                12.6668

                     43                     44                     45
                      A                      A                      A
 Frequencies --   1539.7901              1553.2631              1625.4101
 Red. masses --      1.1267                 4.4001                10.6115
 Frc consts  --      1.5740                 6.2547                16.5178
 IR Inten    --     27.5335               114.3480                56.8346

                     46                     47                     48
                      A                      A                      A
 Frequencies --   1682.1816              3085.2730              3162.2891
 Red. masses --      7.5557                 1.0334                 1.1069
 Frc consts  --     12.5970                 5.7958                 6.5219
 IR Inten    --     57.4416                29.8786                 7.7361

                     49                     50                     51
                      A                      A                      A
 Frequencies --   3192.7277              3210.7430              3276.0865
 Red. masses --      1.1042                 1.0928                 1.0977
 Frc consts  --      6.6315                 6.6376                 6.9410
 IR Inten    --      2.8913                10.2499                 0.6083

 - Thermochemistry -
 -------------------
 Temperature   298.150 Kelvin.  Pressure   1.00000 Atm.
 Atom     1 has atomic number  9 and mass  18.99840

 Molecular mass:   216.01173 amu.
 Principal axes and moments of inertia in atomic units:
                           1         2         3
     Eigenvalues --  1018.016055068.915845703.01020
           X            0.99995  -0.00960   0.00215
           Y            0.00961   0.99994  -0.00587
           Z           -0.00209   0.00589   0.99998
 This molecule is an asymmetric top.
 Rotational symmetry number  1.
 Warning -- assumption of classical behavior for rotation
           may cause significant error
 Rotational temperatures (Kelvin)      0.08508     0.01709     0.01519
 Rotational constants (GHZ):           1.77280     0.35604     0.31645
 Zero-point vibrational energy     333039.5 (Joules/Mol)
                                   79.59835 (Kcal/Mol)
 Warning -- explicit consideration of  17 degrees of freedom as
           vibrations may cause significant error
 Vibrational temperatures:     22.90    95.46   145.03   197.13   227.98
          (Kelvin)            315.92   327.30   359.87   415.04   482.68
                              552.97   621.82   674.70   703.01   783.41
                              819.63   878.60   899.20   943.26  1039.26
                             1145.89  1176.08  1193.53  1198.20  1301.13
                             1363.04  1392.06  1547.04  1631.72  1667.51
                             1718.94  1785.64  1822.64  1895.45  1970.70
                             1980.83  2044.09  2064.05  2116.34  2137.62
                             2160.05  2168.50  2215.41  2234.80  2338.60
                             2420.28  4439.02  4549.83  4593.62  4619.54
                             4713.56

 Zero-point correction=                           0.126848 (Hartree/Particle)
 Thermal correction to Energy=                    0.138379
 Thermal correction to Enthalpy=                  0.139323
 Thermal correction to Gibbs Free Energy=         0.087197
 Sum of electronic and zero-point Energies=          -1098.297100
 Sum of electronic and thermal Energies=             -1098.285570
 Sum of electronic and thermal Enthalpies=           -1098.284626
 Sum of electronic and thermal Free Energies=        -1098.336752

                     E (Thermal)             CV                S
                      KCal/Mol        Cal/Mol-Kelvin    Cal/Mol-Kelvin
 Total                   86.834             42.043            109.709
 Electronic               0.000              0.000              0.000
 Translational            0.889              2.981             42.014
 Rotational               0.889              2.981             31.754
 Vibrational             85.056             36.082             35.941
 Vibration     1          0.593              1.986              7.088
 Vibration     2          0.598              1.970              4.259
 Vibration     3          0.604              1.948              3.439
 Vibration     4          0.614              1.916              2.845
 Vibration     5          0.621              1.893              2.568
 Vibration     6          0.647              1.811              1.963
 Vibration     7          0.651              1.799              1.899
 Vibration     8          0.663              1.763              1.730
 Vibration     9          0.685              1.695              1.483
 Vibration    10          0.717              1.605              1.234
 Vibration    11          0.753              1.504              1.022
 Vibration    12          0.793              1.400              0.852
 Vibration    13          0.826              1.319              0.741
 Vibration    14          0.845              1.275              0.687
 Vibration    15          0.900              1.152              0.556
 Vibration    16          0.926              1.097              0.505
 Vibration    17          0.970              1.009              0.432

 Optimization completed.
    -- Stationary point found.
 Normal termination of Gaussian 16 at Sun Jan 28 15:24:16 2024.
 Gaussian 16:  ES64L-G16RevA.03 25-Dec-2016

 ----------------------------------------------------------------------
 # TD(NStates=10, Root=1) APFD/6-31G* volume pop=NPA density=current Ge
 om=AllCheck Guess=Read
 ----------------------------------------------------------------------

 Structure from the checkpoint file:  "BWRLFZKXJHLHOU-UHFFFAOYSA-N_conf_0_2.chk"
 ----------------------------------
 BWRLFZKXJHLHOU-UHFFFAOYSA-N_conf_0
 ----------------------------------
 Charge =  0 Multiplicity = 1

                         Standard orientation:
 ---------------------------------------------------------------------
 Center     Atomic      Atomic             Coordinates (Angstroms)
 Number     Number       Type             X           Y           Z
 ---------------------------------------------------------------------
      1          9           0       -2.804051    1.099605    0.973115
      2         16           0       -2.596037   -0.081195   -0.089422
      3          6           0       -0.787357   -0.169068   -0.007953
      4          7           0       -0.166634    0.995237   -0.016384
      5          6           0        1.160769    0.870296   -0.006734
      6          7           0        2.090748    1.875810   -0.001235
      7          6           0        3.233513    1.239520    0.004077
      8          7           0        3.139401   -0.127040    0.003183
      9          6           0        4.222537   -1.083998    0.006248
     10          6           0        1.796262   -0.399356   -0.003413
     11          6           0        1.013128   -1.545485   -0.010183
     12          7           0       -0.312202   -1.413411   -0.008919
     13          8           0       -3.001112    0.442809   -1.371809
     14          8           0       -3.181312   -1.264563    0.488007
     15          1           0        4.204887    1.720299    0.008769
     16          1           0        4.168701   -1.718258    0.895939
     17          1           0        5.170646   -0.543461    0.014916
     18          1           0        4.180742   -1.710839   -0.889354
     19          1           0        1.415161   -2.556650   -0.015900
 ---------------------------------------------------------------------

 SCF Done:  E(RAPFD) =  -1098.42394855     A.U. after    2 cycles

 Excitation energies and oscillator strengths:

 Excited State   1:      Singlet-A      4.3141 eV  287.40 nm  f=0.0020  <S**2>=0.000
      54 -> 56         0.44674
      55 -> 56         0.53943
 This state for optimization and/or second-order correction.
 Total Energy, E(TD-HF/TD-DFT) =  -1098.26541001
 Copying the excited state density for this state as the 1-particle RhoCI density.

 Excited State   2:      Singlet-A      5.0173 eV  247.11 nm  f=0.0449  <S**2>=0.000
      53 -> 56        -0.15637
      53 -> 57        -0.19481
      54 -> 56         0.50329
      55 -> 56        -0.39529

 Excited State   3:      Singlet-A      5.0927 eV  243.46 nm  f=0.0012  <S**2>=0.000
      54 -> 57         0.43492
      55 -> 57         0.52572

 Excited State   4:      Singlet-A      5.2236 eV  237.35 nm  f=0.0019  <S**2>=0.000
      50 -> 56         0.12240
      51 -> 56         0.19027
      52 -> 56         0.63430
      53 -> 56         0.12911
      55 -> 57        -0.11342

 Excited State   5:      Singlet-A      5.2970 eV  234.06 nm  f=0.0340  <S**2>=0.000
      52 -> 56        -0.11595
      53 -> 56         0.58216
      53 -> 57        -0.14144
      54 -> 57         0.25506
      55 -> 56        -0.10236
      55 -> 57        -0.17598

 Excited State   6:      Singlet-A      5.7738 eV  214.73 nm  f=0.0032  <S**2>=0.000
      50 -> 56         0.49683
      51 -> 56         0.41125
      52 -> 56        -0.22514
      52 -> 57         0.13086

 Excited State   7:      Singlet-A      5.8226 eV  212.93 nm  f=0.0167  <S**2>=0.000
      50 -> 56        -0.41885
      51 -> 56         0.50827
      51 -> 57        -0.12423
      52 -> 57        -0.11034
      54 -> 57        -0.10899

 Excited State   8:      Singlet-A      6.0892 eV  203.61 nm  f=0.0955  <S**2>=0.000
      50 -> 56        -0.19945
      51 -> 57         0.17165
      52 -> 57         0.54852
      53 -> 56        -0.11806
      54 -> 57         0.25943
      55 -> 57        -0.13440

 Excited State   9:      Singlet-A      6.1809 eV  200.59 nm  f=0.3157  <S**2>=0.000
      49 -> 56        -0.21572
      49 -> 57         0.11107
      51 -> 56        -0.11139
      52 -> 57         0.35636
      53 -> 56         0.20678
      54 -> 57        -0.33727
      55 -> 57         0.33692

 Excited State  10:      Singlet-A      6.3314 eV  195.82 nm  f=0.0114  <S**2>=0.000
      49 -> 56         0.60343
      53 -> 57        -0.26464
      54 -> 57        -0.10650
      55 -> 57         0.10796

 The electronic state is 1-A.
 Alpha  occ. eigenvalues --  -89.22352 -24.77561 -19.20658 -19.20625 -14.48436
 Alpha  occ. eigenvalues --  -14.41361 -14.41279 -14.39382 -10.33128 -10.32466
 Alpha  occ. eigenvalues --  -10.31172 -10.30534 -10.30168 -10.29746  -8.20263
 Alpha  occ. eigenvalues --   -6.15204  -6.14853  -6.14748  -1.26755  -1.12722
 Alpha  occ. eigenvalues --   -1.10114  -1.04557  -1.04226  -0.97453  -0.93582
 Alpha  occ. eigenvalues --   -0.84494  -0.79257  -0.74317  -0.71543  -0.66034
 Alpha  occ. eigenvalues --   -0.64993  -0.60371  -0.59310  -0.55698  -0.53962
 Alpha  occ. eigenvalues --   -0.53158  -0.52303  -0.50268  -0.48598  -0.48342
 Alpha  occ. eigenvalues --   -0.47891  -0.47006  -0.44374  -0.43901  -0.42985
 Alpha  occ. eigenvalues --   -0.38248  -0.38081  -0.37707  -0.34560  -0.33728
 Alpha  occ. eigenvalues --   -0.32465  -0.32156  -0.30903  -0.29523  -0.29316
 Alpha virt. eigenvalues --   -0.08119  -0.05100   0.01337   0.04229   0.05990
 Alpha virt. eigenvalues --    0.07086   0.09391   0.10809   0.10931   0.11228
 Alpha virt. eigenvalues --    0.12147   0.13337   0.13907   0.17175   0.19812

 Mulliken charges:
               1
     1  F   -0.293888
     2  S    1.261987
     3  C    0.168975
     4  N   -0.458715
     5  C    0.427367
     6  N   -0.460076
     7  C    0.199243
     8  N   -0.547701
     9  C   -0.397552
    10  C    0.340406
    11  C   -0.027538
    12  N   -0.362828
    13  O   -0.460219
    14  O   -0.453773
    15  H    0.202266
    16  H    0.216449
    17  H    0.214402
    18  H    0.216567
    19  H    0.214631
 Sum of Mulliken charges =  -0.00000

 Dipole moment (field-independent basis, Debye):
    X=              8.9845    Y=             -2.5922    Z=              0.5852  Tot=              9.3692
 Quadrupole moment (field-independent basis, Debye-Ang):
   XX=            -70.7086   YY=            -87.4533   ZZ=            -87.7269
   XY=             -9.0838   XZ=             -1.9610   YZ=              1.6610

 Summary of Natural Population Analysis:

                                       Natural Population
                Natural  -----------------------------------------------
    Atom  No    Charge         Core      Valence    Rydberg      Total
 -----------------------------------------------------------------------
      F    1   -0.49426      1.99997     7.48421    0.01008     9.49426
      S    2    2.40022      9.99887     3.39363    0.20727    13.59978
      C    3    0.09283      1.99906     3.86562    0.04250     5.90717
      N    4   -0.33495      1.99906     5.31035    0.02553     7.33495
      C    5    0.29661      1.99896     3.67631    0.02812     5.70339
      N    6   -0.42709      1.99940     5.40495    0.02274     7.42709
      C    7    0.17827      1.99935     3.79357    0.02881     5.82173
      N    8   -0.38402      1.99926     5.37269    0.01206     7.38402
      C    9   -0.49493      1.99946     4.48310    0.01238     6.49493
      C   10    0.09829      1.99897     3.88391    0.01883     5.90171
      C   11   -0.14986      1.99907     4.12551    0.02527     6.14986
      N   12   -0.29306      1.99917     5.27184    0.02205     7.29306
      O   13   -0.88045      1.99988     6.85608    0.02449     8.88045
      O   14   -0.87678      1.99988     6.85239    0.02451     8.87678
      H   15    0.23623      0.00000     0.76330    0.00047     0.76377
      H   16    0.25306      0.00000     0.74586    0.00108     0.74694
      H   17    0.25864      0.00000     0.74079    0.00057     0.74136
      H   18    0.25302      0.00000     0.74589    0.00109     0.74698
      H   19    0.26823      0.00000     0.73113    0.00063     0.73177
 =======================================================================
   * Total *   -0.00000     35.99037    73.50114    0.50849   110.00000

 Normal termination of Gaussian 16 at Sun Jan 28 15:29:51 2024.
