 Gaussian 16, Revision A.03,

 --------------------------------
 # opt=CalcFc APFD/6-31G* scf=xqc
 --------------------------------

 ----------------------------------
 UMTDQZXIDLMQBD-UHFFFAOYSA-N_conf_0
 ----------------------------------
 Symbolic Z-matrix:
 Charge =  0 Multiplicity = 1

 SCF Done:  E(RAPFD) =  -1098.42065163     A.U. after   15 cycles
 SCF Done:  E(RAPFD) =  -1098.42989243     A.U. after   14 cycles
 SCF Done:  E(RAPFD) =  -1098.43036901     A.U. after   15 cycles
 SCF Done:  E(RAPFD) =  -1098.43063087     A.U. after   13 cycles
 SCF Done:  E(RAPFD) =  -1098.39727420     A.U. after   15 cycles
 SCF Done:  E(RAPFD) =  -1098.43067243     A.U. after   13 cycles
 SCF Done:  E(RAPFD) =  -1098.43094294     A.U. after   12 cycles
 SCF Done:  E(RAPFD) =  -1098.43102552     A.U. after   12 cycles
 SCF Done:  E(RAPFD) =  -1098.43105219     A.U. after   11 cycles
 SCF Done:  E(RAPFD) =  -1098.43106908     A.U. after   11 cycles
 SCF Done:  E(RAPFD) =  -1098.43107024     A.U. after    9 cycles
 SCF Done:  E(RAPFD) =  -1098.43107035     A.U. after    8 cycles
 SCF Done:  E(RAPFD) =  -1098.43107037     A.U. after    6 cycles
 SCF Done:  E(RAPFD) =  -1098.43107042     A.U. after    7 cycles
 SCF Done:  E(RAPFD) =  -1098.43107046     A.U. after    7 cycles
 SCF Done:  E(RAPFD) =  -1098.43107048     A.U. after    7 cycles
 Optimization completed.
    -- Stationary point found.
 Normal termination of Gaussian 16 at Sun Jan 28 15:20:26 2024.

 ----------------------------------------------------------------------
 # freq APFD/6-31G* volume NMR pop=NPA density=current Geom=AllCheck Gu
 ess=Read
 ----------------------------------------------------------------------

 Structure from the checkpoint file:  "UMTDQZXIDLMQBD-UHFFFAOYSA-N_conf_0_1.chk"
 ----------------------------------
 UMTDQZXIDLMQBD-UHFFFAOYSA-N_conf_0
 ----------------------------------
 Charge =  0 Multiplicity = 1

 SCF Done:  E(RAPFD) =  -1098.43107048     A.U. after    1 cycles

      1  F    Isotropic =   125.1437   Anisotropy =   332.5909

      2  S    Isotropic =   238.1112   Anisotropy =   344.4840

      3  C    Isotropic =    40.6790   Anisotropy =    87.6241

      4  N    Isotropic =    14.9332   Anisotropy =   398.6223

      5  C    Isotropic =    49.9863   Anisotropy =   134.2747

      6  N    Isotropic =   109.2883   Anisotropy =   112.2698

      7  C    Isotropic =   166.1694   Anisotropy =    44.7264

      8  C    Isotropic =    53.1753   Anisotropy =    95.2973

      9  N    Isotropic =    13.1148   Anisotropy =   376.7908

     10  C    Isotropic =    64.8273   Anisotropy =   137.8570

     11  C    Isotropic =    48.8573   Anisotropy =   155.9382

     12  N    Isotropic =   -14.3308   Anisotropy =   451.1771

     13  O    Isotropic =   120.6756   Anisotropy =    70.9701

     14  O    Isotropic =   103.5081   Anisotropy =    64.9858

     15  H    Isotropic =    28.6832   Anisotropy =    10.1810

     16  H    Isotropic =    27.5758   Anisotropy =     7.6844

     17  H    Isotropic =    28.6507   Anisotropy =     9.9707

     18  H    Isotropic =    24.1917   Anisotropy =     5.2948

     19  H    Isotropic =    23.0127   Anisotropy =     5.6590

  Exact polarizability: 150.638  -6.819 110.566  -2.895   1.140  56.623
 Approx polarizability: 222.824 -14.743 196.840  -5.856   4.565  92.074

                      1                      2                      3
                      A                      A                      A
 Frequencies --     20.6773                44.0199                81.4823
 Red. masses --      9.2413                 1.0520                 8.8461
 Frc consts  --      0.0023                 0.0012                 0.0346
 IR Inten    --      0.6097                 0.0063                 1.1089

                      4                      5                      6
                      A                      A                      A
 Frequencies --    130.7088               149.4771               216.5365
 Red. masses --      6.8374                 3.7666                 7.7559
 Frc consts  --      0.0688                 0.0496                 0.2143
 IR Inten    --      2.3695                 2.8738                 1.2166

                      7                      8                      9
                      A                      A                      A
 Frequencies --    229.7808               274.4336               284.4207
 Red. masses --      5.8864                 6.0735                 9.4039
 Frc consts  --      0.1831                 0.2695                 0.4482
 IR Inten    --      3.0745                 0.0210                 0.1892

                     10                     11                     12
                      A                      A                      A
 Frequencies --    338.7713               374.2467               424.2850
 Red. masses --      8.2141                 9.3437                 4.2914
 Frc consts  --      0.5554                 0.7711                 0.4552
 IR Inten    --      0.0921                 0.1826                 0.2552

                     13                     14                     15
                      A                      A                      A
 Frequencies --    463.3132               487.0574               523.9772
 Red. masses --     10.0175                11.9945                 5.6745
 Frc consts  --      1.2669                 1.6765                 0.9179
 IR Inten    --     14.9867                15.3883                34.1679

                     16                     17                     18
                      A                      A                      A
 Frequencies --    552.3546               600.6323               649.0712
 Red. masses --      8.1808                10.6675                 4.1144
 Frc consts  --      1.4706                 2.2674                 1.0213
 IR Inten    --     26.6995               109.1599                20.6131

                     19                     20                     21
                      A                      A                      A
 Frequencies --    682.0266               712.3977               783.8194
 Red. masses --      7.1200                12.0602                 9.6591
 Frc consts  --      1.9513                 3.6062                 3.4964
 IR Inten    --     20.8092                 5.4828                19.2594

                     22                     23                     24
                      A                      A                      A
 Frequencies --    813.1805               821.9201               845.8535
 Red. masses --      8.4279                12.6428                10.2581
 Frc consts  --      3.2835                 5.0321                 4.3242
 IR Inten    --     20.6226               178.0355                46.2963

                     25                     26                     27
                      A                      A                      A
 Frequencies --    896.9247               958.6041               971.4174
 Red. masses --      1.4473                 6.9432                 1.4536
 Frc consts  --      0.6860                 3.7591                 0.8082
 IR Inten    --      4.2655                 7.1011                 7.6622

                     28                     29                     30
                      A                      A                      A
 Frequencies --   1082.3960              1151.3945              1162.0269
 Red. masses --      1.8267                 3.8585                 1.3046
 Frc consts  --      1.2609                 3.0138                 1.0379
 IR Inten    --     16.3588                12.4944                 0.2328

                     31                     32                     33
                      A                      A                      A
 Frequencies --   1192.3962              1244.7178              1256.8015
 Red. masses --      7.6096                 2.8979                 2.3573
 Frc consts  --      6.3746                 2.6453                 2.1938
 IR Inten    --    105.9054                84.8430                20.0474

                     34                     35                     36
                      A                      A                      A
 Frequencies --   1300.5117              1374.1388              1391.4841
 Red. masses --      2.3140                 3.1027                 5.3470
 Frc consts  --      2.3060                 3.4519                 6.0998
 IR Inten    --     45.5395                39.0701                35.7353

                     37                     38                     39
                      A                      A                      A
 Frequencies --   1414.7220              1436.9204              1449.6398
 Red. masses --      4.7399                20.3248                 6.8862
 Frc consts  --      5.5894                24.7253                 8.5261
 IR Inten    --     21.5689               203.8471                75.7453

                     40                     41                     42
                      A                      A                      A
 Frequencies --   1475.0806              1503.3095              1518.7426
 Red. masses --      1.3847                 4.3611                 1.0415
 Frc consts  --      1.7751                 5.8069                 1.4154
 IR Inten    --      5.8261                 7.3226                12.3297

                     43                     44                     45
                      A                      A                      A
 Frequencies --   1530.6875              1575.2308              1641.1901
 Red. masses --      1.1756                 4.3995                10.2855
 Frc consts  --      1.6229                 6.4319                16.3227
 IR Inten    --     22.3670                52.2238                66.5872

                     46                     47                     48
                      A                      A                      A
 Frequencies --   1674.0552              3092.9772              3174.2854
 Red. masses --      7.3412                 1.0329                 1.1073
 Frc consts  --     12.1214                 5.8219                 6.5734
 IR Inten    --     82.8407                28.9398                 7.8326

                     49                     50                     51
                      A                      A                      A
 Frequencies --   3202.3868              3228.1943              3279.5041
 Red. masses --      1.1050                 1.0935                 1.0975
 Frc consts  --      6.6765                 6.7139                 6.9547
 IR Inten    --      0.2876                 6.3273                 0.0986

 - Thermochemistry -
 -------------------
 Temperature   298.150 Kelvin.  Pressure   1.00000 Atm.
 Atom     1 has atomic number  9 and mass  18.99840

 Molecular mass:   216.01173 amu.
 Principal axes and moments of inertia in atomic units:
                           1         2         3
     Eigenvalues --  1255.853194512.130145380.19833
           X            0.99977  -0.02115  -0.00308
           Y            0.02116   0.99977   0.00194
           Z            0.00304  -0.00201   0.99999
 This molecule is an asymmetric top.
 Rotational symmetry number  1.
 Warning -- assumption of classical behavior for rotation
           may cause significant error
 Rotational temperatures (Kelvin)      0.06897     0.01920     0.01610
 Rotational constants (GHZ):           1.43706     0.39998     0.33544
 Zero-point vibrational energy     333065.4 (Joules/Mol)
                                   79.60454 (Kcal/Mol)
 Warning -- explicit consideration of  17 degrees of freedom as
           vibrations may cause significant error
 Vibrational temperatures:     29.75    63.33   117.23   188.06   215.06
          (Kelvin)            311.55   330.60   394.85   409.22   487.42
                              538.46   610.45   666.60   700.77   753.89
                              794.72   864.18   933.87   981.28  1024.98
                             1127.74  1169.99  1182.56  1216.99  1290.47
                             1379.22  1397.65  1557.33  1656.60  1671.90
                             1715.59  1790.87  1808.26  1871.15  1977.08
                             2002.04  2035.47  2067.41  2085.71  2122.31
                             2162.93  2185.13  2202.32  2266.41  2361.31
                             2408.59  4450.10  4567.09  4607.52  4644.65
                             4718.47

 Zero-point correction=                           0.126858 (Hartree/Particle)
 Thermal correction to Energy=                    0.138493
 Thermal correction to Enthalpy=                  0.139437
 Thermal correction to Gibbs Free Energy=         0.086872
 Sum of electronic and zero-point Energies=          -1098.304213
 Sum of electronic and thermal Energies=             -1098.292578
 Sum of electronic and thermal Enthalpies=           -1098.291634
 Sum of electronic and thermal Free Energies=        -1098.344199

                     E (Thermal)             CV                S
                      KCal/Mol        Cal/Mol-Kelvin    Cal/Mol-Kelvin
 Total                   86.905             42.115            110.632
 Electronic               0.000              0.000              0.000
 Translational            0.889              2.981             42.014
 Rotational               0.889              2.981             31.789
 Vibrational             85.128             36.154             36.830
 Vibration     1          0.593              1.986              6.568
 Vibration     2          0.595              1.980              5.069
 Vibration     3          0.600              1.962              3.855
 Vibration     4          0.612              1.923              2.936
 Vibration     5          0.618              1.903              2.679
 Vibration     6          0.645              1.816              1.988
 Vibration     7          0.652              1.796              1.881
 Vibration     8          0.677              1.721              1.568
 Vibration     9          0.683              1.703              1.507
 Vibration    10          0.719              1.598              1.218
 Vibration    11          0.745              1.525              1.062
 Vibration    12          0.786              1.417              0.878
 Vibration    13          0.821              1.331              0.757
 Vibration    14          0.843              1.279              0.691
 Vibration    15          0.879              1.197              0.601
 Vibration    16          0.908              1.135              0.539
 Vibration    17          0.959              1.030              0.449

 Optimization completed.
    -- Stationary point found.
 Normal termination of Gaussian 16 at Sun Jan 28 15:24:21 2024.
 Gaussian 16:  ES64L-G16RevA.03 25-Dec-2016

 ----------------------------------------------------------------------
 # TD(NStates=10, Root=1) APFD/6-31G* volume pop=NPA density=current Ge
 om=AllCheck Guess=Read
 ----------------------------------------------------------------------

 Structure from the checkpoint file:  "UMTDQZXIDLMQBD-UHFFFAOYSA-N_conf_0_2.chk"
 ----------------------------------
 UMTDQZXIDLMQBD-UHFFFAOYSA-N_conf_0
 ----------------------------------
 Charge =  0 Multiplicity = 1

                         Standard orientation:
 ---------------------------------------------------------------------
 Center     Atomic      Atomic             Coordinates (Angstroms)
 Number     Number       Type             X           Y           Z
 ---------------------------------------------------------------------
      1          9           0       -2.949775    0.415510   -1.204772
      2         16           0       -2.406331   -0.326640    0.109218
      3          6           0       -0.699119    0.266451    0.032588
      4          7           0        0.218014   -0.688376    0.023506
      5          6           0        1.438533   -0.168617    0.011037
      6          7           0        2.637062   -0.823475    0.000061
      7          6           0        2.828857   -2.258923    0.008248
      8          6           0        3.590363    0.165221   -0.014932
      9          7           0        3.118897    1.385846   -0.015676
     10          6           0        1.756017    1.208389    0.000884
     11          6           0        0.668826    2.080924    0.010210
     12          7           0       -0.571168    1.589887    0.031008
     13          8           0       -2.452648   -1.740678   -0.165430
     14          8           0       -3.083703    0.274450    1.231659
     15          1           0        3.341359   -2.571350    0.921903
     16          1           0        1.843160   -2.725600   -0.028856
     17          1           0        3.408581   -2.569561   -0.864586
     18          1           0        4.643966   -0.087168   -0.026041
     19          1           0        0.782507    3.162310    0.002724
 ---------------------------------------------------------------------

 SCF Done:  E(RAPFD) =  -1098.43107048     A.U. after    1 cycles

 Excitation energies and oscillator strengths:

 Excited State   1:      Singlet-A      4.3532 eV  284.81 nm  f=0.0008  <S**2>=0.000
      54 -> 56         0.65266
      55 -> 56         0.25772
 This state for optimization and/or second-order correction.
 Total Energy, E(TD-HF/TD-DFT) =  -1098.27109359
 Copying the excited state density for this state as the 1-particle RhoCI density.

 Excited State   2:      Singlet-A      5.0932 eV  243.43 nm  f=0.0701  <S**2>=0.000
      53 -> 56        -0.43520
      53 -> 57         0.16306
      54 -> 56        -0.18763
      55 -> 56         0.45906
      55 -> 57         0.17123

 Excited State   3:      Singlet-A      5.1830 eV  239.21 nm  f=0.0025  <S**2>=0.000
      54 -> 57         0.63988
      55 -> 57         0.26548

 Excited State   4:      Singlet-A      5.2334 eV  236.91 nm  f=0.0918  <S**2>=0.000
      53 -> 56         0.44509
      53 -> 57         0.14928
      54 -> 56        -0.14425
      54 -> 57         0.15411
      55 -> 56         0.39559
      55 -> 57        -0.25348

 Excited State   5:      Singlet-A      5.3310 eV  232.57 nm  f=0.0004  <S**2>=0.000
      51 -> 56         0.21028
      52 -> 56         0.65810

 Excited State   6:      Singlet-A      5.8894 eV  210.52 nm  f=0.0160  <S**2>=0.000
      51 -> 56         0.63417
      52 -> 56        -0.20933
      55 -> 57        -0.13842

 Excited State   7:      Singlet-A      6.0379 eV  205.34 nm  f=0.0564  <S**2>=0.000
      49 -> 56         0.21072
      50 -> 56         0.56928
      52 -> 56         0.10225
      52 -> 57         0.14716
      53 -> 56        -0.10693
      55 -> 57        -0.20317

 Excited State   8:      Singlet-A      6.1204 eV  202.57 nm  f=0.2301  <S**2>=0.000
      48 -> 56         0.14827
      49 -> 56         0.16241
      50 -> 56         0.21025
      51 -> 56         0.16792
      53 -> 56         0.27066
      54 -> 57        -0.19392
      55 -> 57         0.48677

 Excited State   9:      Singlet-A      6.2342 eV  198.88 nm  f=0.0026  <S**2>=0.000
      50 -> 56        -0.17842
      51 -> 57         0.20035
      52 -> 57         0.63712

 Excited State  10:      Singlet-A      6.3946 eV  193.89 nm  f=0.0040  <S**2>=0.000
      49 -> 56         0.62702
      49 -> 57         0.11381
      50 -> 56        -0.23294

 The electronic state is 1-A.
 Alpha  occ. eigenvalues --  -89.22883 -24.78058 -19.21236 -19.21149 -14.47722
 Alpha  occ. eigenvalues --  -14.42397 -14.41080 -14.39772 -10.33647 -10.32360
 Alpha  occ. eigenvalues --  -10.31966 -10.29684 -10.28741 -10.28075  -8.20796
 Alpha  occ. eigenvalues --   -6.15733  -6.15388  -6.15283  -1.27216  -1.13297
 Alpha  occ. eigenvalues --   -1.10111  -1.05132  -1.04239  -0.97080  -0.94124
 Alpha  occ. eigenvalues --   -0.83674  -0.78505  -0.74500  -0.71561  -0.66739
 Alpha  occ. eigenvalues --   -0.64454  -0.59826  -0.59066  -0.54924  -0.54002
 Alpha  occ. eigenvalues --   -0.53421  -0.51888  -0.50480  -0.48738  -0.47977
 Alpha  occ. eigenvalues --   -0.47215  -0.45110  -0.44816  -0.44420  -0.42906
 Alpha  occ. eigenvalues --   -0.38877  -0.38652  -0.37897  -0.35105  -0.34377
 Alpha  occ. eigenvalues --   -0.33074  -0.32437  -0.30939  -0.29474  -0.29166
 Alpha virt. eigenvalues --   -0.08034  -0.04860   0.00300   0.04151   0.06848
 Alpha virt. eigenvalues --    0.08688   0.10389   0.11082   0.11641   0.13027
 Alpha virt. eigenvalues --    0.13314   0.14005   0.14853   0.15843   0.18573

 Mulliken charges:
               1
     1  F   -0.301406
     2  S    1.256904
     3  C    0.134670
     4  N   -0.497184
     5  C    0.585688
     6  N   -0.509757
     7  C   -0.406826
     8  C    0.194439
     9  N   -0.481453
    10  C    0.183794
    11  C   -0.025297
    12  N   -0.324919
    13  O   -0.460785
    14  O   -0.463660
    15  H    0.217096
    16  H    0.242246
    17  H    0.216028
    18  H    0.204184
    19  H    0.236237
 Sum of Mulliken charges =  -0.00000

 Dipole moment (field-independent basis, Debye):
    X=              6.5693    Y=             -1.2150    Z=             -0.6325  Tot=              6.7105
 Quadrupole moment (field-independent basis, Debye-Ang):
   XX=            -85.0037   YY=            -80.1418   ZZ=            -86.9868
   XY=            -13.3231   XZ=              2.7404   YZ=             -0.9669

 Summary of Natural Population Analysis:

                                       Natural Population
                Natural  -----------------------------------------------
    Atom  No    Charge         Core      Valence    Rydberg      Total
 -----------------------------------------------------------------------
      F    1   -0.50050      1.99997     7.49065    0.00989     9.50050
      S    2    2.39842      9.99887     3.39561    0.20710    13.60158
      C    3    0.03534      1.99906     3.92218    0.04342     5.96466
      N    4   -0.42729      1.99915     5.40339    0.02475     7.42729
      C    5    0.37425      1.99899     3.60110    0.02566     5.62575
      N    6   -0.38812      1.99926     5.37652    0.01233     7.38812
      C    7   -0.50119      1.99945     4.48906    0.01267     6.50119
      C    8    0.16623      1.99934     3.80628    0.02815     5.83377
      N    9   -0.39244      1.99930     5.37188    0.02126     7.39244
      C   10    0.02288      1.99888     3.95657    0.02167     5.97712
      C   11   -0.08885      1.99908     4.06535    0.02442     6.08885
      N   12   -0.23095      1.99911     5.21137    0.02048     7.23095
      O   13   -0.88334      1.99988     6.85912    0.02434     8.88334
      O   14   -0.88524      1.99988     6.86089    0.02447     8.88524
      H   15    0.25403      0.00000     0.74511    0.00086     0.74597
      H   16    0.27372      0.00000     0.72532    0.00096     0.72628
      H   17    0.25418      0.00000     0.74499    0.00083     0.74582
      H   18    0.23891      0.00000     0.76062    0.00047     0.76109
      H   19    0.27996      0.00000     0.71934    0.00070     0.72004
 =======================================================================
   * Total *    0.00000     35.99023    73.50534    0.50443   110.00000

 Normal termination of Gaussian 16 at Sun Jan 28 15:29:30 2024.
