 Gaussian 16, Revision A.03,

 --------------------------------
 # opt=CalcFc APFD/6-31G* scf=xqc
 --------------------------------

 ----------------------------------
 GNNTZHUFNOYUQO-UHFFFAOYSA-N_conf_0
 ----------------------------------
 Symbolic Z-matrix:
 Charge =  0 Multiplicity = 1

 SCF Done:  E(RAPFD) =  -1049.12095938     A.U. after   15 cycles
 SCF Done:  E(RAPFD) =  -1049.13126950     A.U. after   15 cycles
 SCF Done:  E(RAPFD) =  -1049.13142149     A.U. after   15 cycles
 SCF Done:  E(RAPFD) =  -1049.13174174     A.U. after   12 cycles
 SCF Done:  E(RAPFD) =  -1049.13196071     A.U. after   12 cycles
 SCF Done:  E(RAPFD) =  -1049.13211953     A.U. after   15 cycles
 SCF Done:  E(RAPFD) =  -1049.13247981     A.U. after   11 cycles
 SCF Done:  E(RAPFD) =  -1049.13312395     A.U. after   13 cycles
 SCF Done:  E(RAPFD) =  -1049.13359079     A.U. after   15 cycles
 SCF Done:  E(RAPFD) =  -1049.13393271     A.U. after   12 cycles
 SCF Done:  E(RAPFD) =  -1049.13405913     A.U. after   12 cycles
 SCF Done:  E(RAPFD) =  -1049.13407101     A.U. after   11 cycles
 SCF Done:  E(RAPFD) =  -1049.13407215     A.U. after    9 cycles
 SCF Done:  E(RAPFD) =  -1049.13407238     A.U. after    8 cycles
 Optimization completed.
    -- Stationary point found.
 Normal termination of Gaussian 16 at Tue Feb 13 13:37:21 2024.

 ----------------------------------------------------------------------
 # freq APFD/6-31G* volume NMR pop=NPA density=current Geom=AllCheck Gu
 ess=Read
 ----------------------------------------------------------------------

 Structure from the checkpoint file:  "GNNTZHUFNOYUQO-UHFFFAOYSA-N_conf_0_1.chk"
 ----------------------------------
 GNNTZHUFNOYUQO-UHFFFAOYSA-N_conf_0
 ----------------------------------
 Charge =  0 Multiplicity = 1

 SCF Done:  E(RAPFD) =  -1049.13407238     A.U. after    1 cycles

      1  O    Isotropic =   120.2215   Anisotropy =    73.5309

      2  S    Isotropic =   233.7598   Anisotropy =   332.8653

      3  C    Isotropic =    44.0007   Anisotropy =    99.1249

      4  N    Isotropic =   -47.8684   Anisotropy =   488.7705

      5  C    Isotropic =    53.4505   Anisotropy =   176.8403

      6  C    Isotropic =    66.6422   Anisotropy =   154.3896

      7  C    Isotropic =    67.6888   Anisotropy =   172.6966

      8  C    Isotropic =    68.9575   Anisotropy =   172.8408

      9  C    Isotropic =    70.5808   Anisotropy =   150.0611

     10  C    Isotropic =    71.2296   Anisotropy =   198.0802

     11  C    Isotropic =    60.7902   Anisotropy =   168.6175

     12  C    Isotropic =    79.2681   Anisotropy =   158.9479

     13  F    Isotropic =   121.1426   Anisotropy =   333.1280

     14  O    Isotropic =   111.3223   Anisotropy =    69.8037

     15  H    Isotropic =    23.7435   Anisotropy =     6.7465

     16  H    Isotropic =    24.0964   Anisotropy =     5.3209

     17  H    Isotropic =    24.2512   Anisotropy =     5.1336

     18  H    Isotropic =    24.1952   Anisotropy =     6.4036

     19  H    Isotropic =    23.8988   Anisotropy =     6.8400

     20  H    Isotropic =    24.0703   Anisotropy =     8.6453

  Exact polarizability: 186.731  11.508 125.009  -3.189   1.823  51.133
 Approx polarizability: 285.423  23.445 231.758  -5.243   5.441  83.544

                      1                      2                      3
                      A                      A                      A
 Frequencies --     26.5246                72.8564               143.0410
 Red. masses --      8.6177                 7.3033                 8.6275
 Frc consts  --      0.0036                 0.0228                 0.1040
 IR Inten    --      0.3790                 0.1171                 0.5173

                      4                      5                      6
                      A                      A                      A
 Frequencies --    177.1203               184.4466               270.5474
 Red. masses --      4.6754                 6.0458                 9.9194
 Frc consts  --      0.0864                 0.1212                 0.4278
 IR Inten    --      4.1084                 0.0091                 2.8252

                      7                      8                      9
                      A                      A                      A
 Frequencies --    293.9413               325.4087               408.0965
 Red. masses --     10.0847                 7.5366                 3.7791
 Frc consts  --      0.5134                 0.4702                 0.3708
 IR Inten    --      0.3088                 0.1352                 2.0276

                     10                     11                     12
                      A                      A                      A
 Frequencies --    409.9053               463.8800               489.7229
 Red. masses --      6.6542                 9.2802                 3.0340
 Frc consts  --      0.6587                 1.1766                 0.4287
 IR Inten    --      7.5900                10.6129                 7.9228

                     13                     14                     15
                      A                      A                      A
 Frequencies --    497.2946               534.2892               544.9741
 Red. masses --      8.0725                 7.2724                 4.3592
 Frc consts  --      1.1762                 1.2232                 0.7628
 IR Inten    --     13.4409                 3.0165                 3.3887

                     16                     17                     18
                      A                      A                      A
 Frequencies --    552.3290               628.0894               659.7293
 Red. masses --      9.7140                 8.2596                 9.8048
 Frc consts  --      1.7460                 1.9198                 2.5143
 IR Inten    --     71.1967                15.8899                79.0267

                     19                     20                     21
                      A                      A                      A
 Frequencies --    679.9789               770.3160               791.8605
 Red. masses --      4.3466                 1.3801                 5.4161
 Frc consts  --      1.1841                 0.4825                 2.0009
 IR Inten    --      6.9285                17.9943                10.2229

                     22                     23                     24
                      A                      A                      A
 Frequencies --    799.3531               814.2968               853.4760
 Red. masses --      3.2236                15.3975                 1.3572
 Frc consts  --      1.2136                 6.0154                 0.5825
 IR Inten    --     10.5442               221.7067                43.7011

                     25                     26                     27
                      A                      A                      A
 Frequencies --    881.8802               897.6242               966.5026
 Red. masses --      6.6811                 1.6350                 5.4022
 Frc consts  --      3.0614                 0.7762                 2.9732
 IR Inten    --     34.2203                 1.7737                 3.1417

                     28                     29                     30
                      A                      A                      A
 Frequencies --    978.4263              1003.4484              1013.5983
 Red. masses --      1.3255                 1.3271                 1.3035
 Frc consts  --      0.7476                 0.7873                 0.7890
 IR Inten    --      1.4624                 1.0625                 0.0201

                     31                     32                     33
                      A                      A                      A
 Frequencies --   1054.9394              1136.8337              1176.1863
 Red. masses --      2.1914                 2.4963                 1.9676
 Frc consts  --      1.4369                 1.9008                 1.6038
 IR Inten    --      2.6678                15.4928                35.2381

                     34                     35                     36
                      A                      A                      A
 Frequencies --   1183.9168              1198.4168              1223.3585
 Red. masses --      1.2097                 1.1708                 7.1500
 Frc consts  --      0.9990                 0.9907                 6.3047
 IR Inten    --      1.3986                 4.6130               178.6477

                     37                     38                     39
                      A                      A                      A
 Frequencies --   1269.0686              1293.1020              1363.3226
 Red. masses --      2.1866                 1.7986                 3.1091
 Frc consts  --      2.0748                 1.7719                 3.4047
 IR Inten    --      0.7831                 2.8606                 8.4956

                     40                     41                     42
                      A                      A                      A
 Frequencies --   1410.7754              1428.1676              1443.2909
 Red. masses --      3.0521                16.5187                 6.3206
 Frc consts  --      3.5790                19.8511                 7.7574
 IR Inten    --      8.8625               187.6240                15.0878

                     43                     44                     45
                      A                      A                      A
 Frequencies --   1479.8316              1519.9004              1567.4323
 Red. masses --      2.2235                 3.1313                 3.7526
 Frc consts  --      2.8689                 4.2620                 5.4319
 IR Inten    --      2.3799                 1.0761                32.3988

                     46                     47                     48
                      A                      A                      A
 Frequencies --   1641.5749              1659.3328              1695.7211
 Red. masses --      7.7500                 6.6564                 6.1313
 Frc consts  --     12.3047                10.7984                10.3875
 IR Inten    --     12.9800                11.8580                 3.8953

                     49                     50                     51
                      A                      A                      A
 Frequencies --   3205.0191              3214.5256              3217.1305
 Red. masses --      1.0872                 1.0910                 1.0902
 Frc consts  --      6.5797                 6.6424                 6.6482
 IR Inten    --      0.7165                 3.4627                10.5530

                     52                     53                     54
                      A                      A                      A
 Frequencies --   3230.0677              3243.7255              3265.8796
 Red. masses --      1.0948                 1.0963                 1.0946
 Frc consts  --      6.7297                 6.7960                 6.8789
 IR Inten    --     13.1300                 5.0308                 3.7041

 - Thermochemistry -
 -------------------
 Temperature   298.150 Kelvin.  Pressure   1.00000 Atm.
 Atom     1 has atomic number  8 and mass  15.99491

 Molecular mass:   211.01033 amu.
 Principal axes and moments of inertia in atomic units:
                           1         2         3
     Eigenvalues --  1065.184874967.674165653.12341
           X            0.99998   0.00605  -0.00312
           Y           -0.00603   0.99997   0.00528
           Z            0.00315  -0.00526   0.99998
 This molecule is an asymmetric top.
 Rotational symmetry number  1.
 Warning -- assumption of classical behavior for rotation
           may cause significant error
 Rotational temperatures (Kelvin)      0.08131     0.01744     0.01532
 Rotational constants (GHZ):           1.69430     0.36330     0.31925
 Zero-point vibrational energy     366383.1 (Joules/Mol)
                                   87.56767 (Kcal/Mol)
 Warning -- explicit consideration of  16 degrees of freedom as
           vibrations may cause significant error
 Vibrational temperatures:     38.16   104.82   205.80   254.84   265.38
          (Kelvin)            389.26   422.92   468.19   587.16   589.76
                              667.42   704.60   715.50   768.72   784.10
                              794.68   903.68   949.20   978.34  1108.31
                             1139.31  1150.09  1171.59  1227.96  1268.83
                             1291.48  1390.58  1407.74  1443.74  1458.34
                             1517.82  1635.65  1692.27  1703.39  1724.25
                             1760.14  1825.91  1860.49  1961.52  2029.79
                             2054.81  2076.57  2129.15  2186.80  2255.19
                             2361.86  2387.41  2439.76  4611.31  4624.99
                             4628.73  4647.35  4667.00  4698.87

 Zero-point correction=                           0.139548 (Hartree/Particle)
 Thermal correction to Energy=                    0.150301
 Thermal correction to Enthalpy=                  0.151245
 Thermal correction to Gibbs Free Energy=         0.101595
 Sum of electronic and zero-point Energies=          -1048.994524
 Sum of electronic and thermal Energies=             -1048.983772
 Sum of electronic and thermal Enthalpies=           -1048.982828
 Sum of electronic and thermal Free Energies=        -1049.032477

                     E (Thermal)             CV                S
                      KCal/Mol        Cal/Mol-Kelvin    Cal/Mol-Kelvin
 Total                   94.315             41.816            104.497
 Electronic               0.000              0.000              0.000
 Translational            0.889              2.981             41.944
 Rotational               0.889              2.981             31.770
 Vibrational             92.538             35.854             30.783
 Vibration     1          0.593              1.984              6.074
 Vibration     2          0.599              1.967              4.075
 Vibration     3          0.616              1.910              2.763
 Vibration     4          0.628              1.871              2.359
 Vibration     5          0.631              1.861              2.283
 Vibration     6          0.674              1.727              1.593
 Vibration     7          0.689              1.685              1.451
 Vibration     8          0.710              1.625              1.283
 Vibration     9          0.773              1.453              0.933
 Vibration    10          0.774              1.449              0.927
 Vibration    11          0.821              1.330              0.755
 Vibration    12          0.846              1.273              0.684
 Vibration    13          0.853              1.256              0.665
 Vibration    14          0.889              1.174              0.578
 Vibration    15          0.900              1.151              0.555
 Vibration    16          0.908              1.135              0.539

 Optimization completed.
    -- Stationary point found.
 Normal termination of Gaussian 16 at Tue Feb 13 13:41:47 2024.
 Gaussian 16:  ES64L-G16RevA.03 25-Dec-2016

 ----------------------------------------------------------------------
 # TD(NStates=10, Root=1) APFD/6-31G* volume pop=NPA density=current Ge
 om=AllCheck Guess=Read
 ----------------------------------------------------------------------

 Structure from the checkpoint file:  "GNNTZHUFNOYUQO-UHFFFAOYSA-N_conf_0_2.chk"
 ----------------------------------
 GNNTZHUFNOYUQO-UHFFFAOYSA-N_conf_0
 ----------------------------------
 Charge =  0 Multiplicity = 1

                         Standard orientation:
 ---------------------------------------------------------------------
 Center     Atomic      Atomic             Coordinates (Angstroms)
 Number     Number       Type             X           Y           Z
 ---------------------------------------------------------------------
      1          8           0        3.293067    1.061308   -0.153356
      2         16           0        2.523829   -0.163220   -0.118522
      3          6           0        0.773672    0.250636   -0.062911
      4          7           0       -0.040728   -0.766831   -0.057722
      5          6           0       -1.368789   -0.495003   -0.027570
      6          6           0       -2.280281   -1.579044   -0.019060
      7          6           0       -3.632065   -1.336607    0.009603
      8          6           0       -4.127320   -0.009412    0.030544
      9          6           0       -3.264625    1.060439    0.022432
     10          6           0       -1.865063    0.846182   -0.006261
     11          6           0       -0.923077    1.900227   -0.015428
     12          6           0        0.421111    1.615401   -0.042552
     13          9           0        2.679858   -0.749011    1.369245
     14          8           0        2.771525   -1.260895   -1.018485
     15          1           0       -1.871884   -2.585061   -0.036915
     16          1           0       -4.332950   -2.167330    0.015827
     17          1           0       -5.200881    0.159333    0.052800
     18          1           0       -3.642229    2.080372    0.038098
     19          1           0       -1.272107    2.930342   -0.000910
     20          1           0        1.187047    2.382549   -0.049760
 ---------------------------------------------------------------------

 SCF Done:  E(RAPFD) =  -1049.13407238     A.U. after    1 cycles

 Excitation energies and oscillator strengths:

 Excited State   1:      Singlet-A      4.2258 eV  293.40 nm  f=0.0322  <S**2>=0.000
      53 -> 55         0.11539
      53 -> 56        -0.13320
      54 -> 55         0.67193
 This state for optimization and/or second-order correction.
 Total Energy, E(TD-HF/TD-DFT) =  -1048.97877585
 Copying the excited state density for this state as the 1-particle RhoCI density.

 Excited State   2:      Singlet-A      4.3597 eV  284.39 nm  f=0.0023  <S**2>=0.000
      52 -> 55         0.69809

 Excited State   3:      Singlet-A      4.5441 eV  272.85 nm  f=0.0309  <S**2>=0.000
      53 -> 55         0.54093
      54 -> 55        -0.14597
      54 -> 56         0.41981

 Excited State   4:      Singlet-A      5.4390 eV  227.96 nm  f=0.0001  <S**2>=0.000
      52 -> 56         0.69954

 Excited State   5:      Singlet-A      5.7090 eV  217.17 nm  f=0.3954  <S**2>=0.000
      49 -> 55         0.10066
      50 -> 55         0.10618
      51 -> 55         0.50410
      53 -> 55         0.27523
      53 -> 56         0.11773
      54 -> 56        -0.33199

 Excited State   6:      Singlet-A      5.8254 eV  212.83 nm  f=0.4922  <S**2>=0.000
      51 -> 55         0.47411
      53 -> 55        -0.29462
      53 -> 56        -0.13927
      53 -> 57        -0.12071
      54 -> 56         0.36691

 Excited State   7:      Singlet-A      5.9510 eV  208.34 nm  f=0.0704  <S**2>=0.000
      49 -> 55        -0.13222
      50 -> 55         0.35631
      53 -> 56         0.46401
      54 -> 56         0.17403
      54 -> 57         0.30723

 Excited State   8:      Singlet-A      6.1181 eV  202.65 nm  f=0.0172  <S**2>=0.000
      48 -> 55         0.40404
      49 -> 55         0.44702
      50 -> 55         0.29541
      53 -> 56        -0.13705

 Excited State   9:      Singlet-A      6.2518 eV  198.32 nm  f=0.0013  <S**2>=0.000
      48 -> 55         0.56010
      49 -> 55        -0.31590
      50 -> 55        -0.24126

 Excited State  10:      Singlet-A      6.4268 eV  192.92 nm  f=0.2523  <S**2>=0.000
      49 -> 55         0.34075
      50 -> 55        -0.32295
      50 -> 57         0.10034
      53 -> 56         0.41475
      54 -> 55         0.12340
      54 -> 56         0.10931
      54 -> 57        -0.17375
      54 -> 58        -0.10269

 The electronic state is 1-A.
 Alpha  occ. eigenvalues --  -89.22962 -24.78096 -19.21465 -19.21276 -14.40624
 Alpha  occ. eigenvalues --  -10.30710 -10.28148 -10.26497 -10.26093 -10.25885
 Alpha  occ. eigenvalues --  -10.24805 -10.24738 -10.24617 -10.24082  -8.20886
 Alpha  occ. eigenvalues --   -6.15822  -6.15485  -6.15361  -1.27196  -1.13380
 Alpha  occ. eigenvalues --   -1.05293  -1.00816  -0.89779  -0.85828  -0.81039
 Alpha  occ. eigenvalues --   -0.78570  -0.72918  -0.68214  -0.65413  -0.64380
 Alpha  occ. eigenvalues --   -0.58906  -0.56858  -0.55410  -0.53645  -0.50957
 Alpha  occ. eigenvalues --   -0.50236  -0.48996  -0.47255  -0.46452  -0.45958
 Alpha  occ. eigenvalues --   -0.44565  -0.44303  -0.43984  -0.39615  -0.39343
 Alpha  occ. eigenvalues --   -0.39145  -0.37923  -0.35590  -0.34894  -0.34414
 Alpha  occ. eigenvalues --   -0.33135  -0.29936  -0.28999  -0.26737
 Alpha virt. eigenvalues --   -0.08778  -0.05105  -0.00566   0.03154   0.05205
 Alpha virt. eigenvalues --    0.08196   0.09577   0.09790   0.11799   0.13547
 Alpha virt. eigenvalues --    0.14399   0.16002   0.17043   0.17697   0.18462

 Mulliken charges:
               1
     1  O   -0.504370
     2  S    1.230795
     3  C   -0.055949
     4  N   -0.550626
     5  C    0.238485
     6  C   -0.117727
     7  C   -0.152362
     8  C   -0.171792
     9  C   -0.165131
    10  C    0.111766
    11  C   -0.209515
    12  C   -0.146364
    13  F   -0.306880
    14  O   -0.470276
    15  H    0.236356
    16  H    0.210981
    17  H    0.199724
    18  H    0.213566
    19  H    0.178502
    20  H    0.230817
 Sum of Mulliken charges =  -0.00000

 Dipole moment (field-independent basis, Debye):
    X=            -10.3925    Y=              1.4515    Z=              0.7545  Tot=             10.5205
 Quadrupole moment (field-independent basis, Debye-Ang):
   XX=            -76.8051   YY=            -76.9367   ZZ=            -88.7379
   XY=              3.4427   XZ=              2.2184   YZ=             -1.3353

 Summary of Natural Population Analysis:

                                       Natural Population
                Natural  -----------------------------------------------
    Atom  No    Charge         Core      Valence    Rydberg      Total
 -----------------------------------------------------------------------
      O    1   -0.92660      1.99988     6.90339    0.02332     8.92660
      S    2    2.40331      9.99880     3.39059    0.20730    13.59669
      C    3   -0.14925      1.99884     4.11129    0.03912     6.14925
      N    4   -0.49626      1.99929     5.46917    0.02780     7.49626
      C    5    0.15920      1.99904     3.81904    0.02272     5.84080
      C    6   -0.08291      1.99905     4.06770    0.01616     6.08291
      C    7   -0.18208      1.99914     4.16857    0.01436     6.18208
      C    8   -0.26935      1.99915     4.25490    0.01531     6.26935
      C    9   -0.07182      1.99906     4.05861    0.01414     6.07182
      C   10   -0.10452      1.99902     4.09091    0.01459     6.10452
      C   11   -0.27220      1.99908     4.25544    0.01768     6.27220
      C   12   -0.18765      1.99899     4.17286    0.01581     6.18765
      F   13   -0.50824      1.99997     7.49850    0.00977     9.50824
      O   14   -0.89432      1.99988     6.87017    0.02427     8.89432
      H   15    0.27390      0.00000     0.72483    0.00127     0.72610
      H   16    0.26188      0.00000     0.73743    0.00069     0.73812
      H   17    0.26096      0.00000     0.73834    0.00071     0.73904
      H   18    0.25535      0.00000     0.74359    0.00106     0.74465
      H   19    0.24898      0.00000     0.75009    0.00093     0.75102
      H   20    0.28161      0.00000     0.71728    0.00111     0.71839
 =======================================================================
   * Total *   -0.00000     35.98918    71.54268    0.46813   108.00000

 Normal termination of Gaussian 16 at Tue Feb 13 13:47:37 2024.
