 Gaussian 16, Revision A.03,

 --------------------------------
 # opt=CalcFc APFD/6-31G* scf=xqc
 --------------------------------

 ----------------------------------
 MCJUWZWWFSIMHG-UHFFFAOYSA-N_conf_0
 ----------------------------------
 Symbolic Z-matrix:
 Charge =  0 Multiplicity = 1

 SCF Done:  E(RAPFD) =  -1232.40741765     A.U. after   15 cycles
 SCF Done:  E(RAPFD) =  -1232.41532222     A.U. after   14 cycles
 SCF Done:  E(RAPFD) =  -1232.41504705     A.U. after   15 cycles
 SCF Done:  E(RAPFD) =  -1232.41541091     A.U. after   12 cycles
 SCF Done:  E(RAPFD) =  -1232.41546297     A.U. after   12 cycles
 SCF Done:  E(RAPFD) =  -1232.41547387     A.U. after   10 cycles
 SCF Done:  E(RAPFD) =  -1232.41547592     A.U. after    9 cycles
 SCF Done:  E(RAPFD) =  -1232.41547969     A.U. after   11 cycles
 SCF Done:  E(RAPFD) =  -1232.41550925     A.U. after   13 cycles
 SCF Done:  E(RAPFD) =  -1232.41590687     A.U. after   15 cycles
 SCF Done:  E(RAPFD) =  -1232.40951419     A.U. after   15 cycles
 SCF Done:  E(RAPFD) =  -1232.41820098     A.U. after   12 cycles
 SCF Done:  E(RAPFD) =  -1232.41823452     A.U. after   11 cycles
 SCF Done:  E(RAPFD) =  -1232.41824236     A.U. after   10 cycles
 SCF Done:  E(RAPFD) =  -1232.41824411     A.U. after    9 cycles
 SCF Done:  E(RAPFD) =  -1232.41824505     A.U. after    8 cycles
 SCF Done:  E(RAPFD) =  -1232.41824538     A.U. after    7 cycles
 SCF Done:  E(RAPFD) =  -1232.41824543     A.U. after    7 cycles
 Optimization completed.
    -- Stationary point found.
 Normal termination of Gaussian 16 at Mon Feb 26 12:52:17 2024.

 ----------------------------------------------------------------------
 # freq APFD/6-31G* volume NMR pop=NPA density=current Geom=AllCheck Gu
 ess=Read
 ----------------------------------------------------------------------

 Structure from the checkpoint file:  "MCJUWZWWFSIMHG-UHFFFAOYSA-N_conf_0_1.chk"
 ----------------------------------
 MCJUWZWWFSIMHG-UHFFFAOYSA-N_conf_0
 ----------------------------------
 Charge =  0 Multiplicity = 1

 SCF Done:  E(RAPFD) =  -1232.41824543     A.U. after    1 cycles

      1  F    Isotropic =   122.6765   Anisotropy =   330.7287

      2  S    Isotropic =   237.9919   Anisotropy =   340.0345

      3  C    Isotropic =    40.3420   Anisotropy =   109.3082

      4  N    Isotropic =   -50.9016   Anisotropy =   526.9100

      5  C    Isotropic =    50.7352   Anisotropy =   159.9668

      6  C    Isotropic =    65.9333   Anisotropy =   156.5843

      7  C    Isotropic =    69.3932   Anisotropy =    14.9493

      8  F    Isotropic =   277.3016   Anisotropy =   112.1297

      9  F    Isotropic =   252.4778   Anisotropy =   114.5961

     10  F    Isotropic =   276.0772   Anisotropy =   113.1901

     11  C    Isotropic =    63.3749   Anisotropy =   188.6646

     12  C    Isotropic =    75.1057   Anisotropy =   169.8909

     13  O    Isotropic =   120.9857   Anisotropy =    69.9843

     14  O    Isotropic =   108.1072   Anisotropy =    67.4939

     15  H    Isotropic =    23.0839   Anisotropy =     8.3283

     16  H    Isotropic =    24.0734   Anisotropy =     8.0770

     17  H    Isotropic =    24.0925   Anisotropy =     8.3430

  Exact polarizability: 121.258  -1.243  88.660   1.829   1.616  50.357
 Approx polarizability: 165.167  -0.949 164.104   3.046   5.228  81.800

                      1                      2                      3
                      A                      A                      A
 Frequencies --     15.3897                40.3872                57.2843
 Red. masses --     14.2432                 6.5448                11.9790
 Frc consts  --      0.0020                 0.0063                 0.0232
 IR Inten    --      0.2885                 0.6343                 2.6294

                      4                      5                      6
                      A                      A                      A
 Frequencies --    126.6704               152.4174               211.9125
 Red. masses --     12.9818                12.7268                13.1066
 Frc consts  --      0.1227                 0.1742                 0.3468
 IR Inten    --      3.1369                 0.0311                 0.2760

                      7                      8                      9
                      A                      A                      A
 Frequencies --    225.3341               264.9800               337.8894
 Red. masses --     12.5538                10.7632                12.0975
 Frc consts  --      0.3756                 0.4453                 0.8138
 IR Inten    --      0.1284                 0.0208                 1.5720

                     10                     11                     12
                      A                      A                      A
 Frequencies --    394.7143               403.1910               412.0510
 Red. masses --      7.9288                 5.4769                 4.7668
 Frc consts  --      0.7278                 0.5246                 0.4768
 IR Inten    --      4.0577                 0.9960                 2.4399

                     13                     14                     15
                      A                      A                      A
 Frequencies --    429.0245               471.7196               486.0464
 Red. masses --     10.0251                13.7483                13.1479
 Frc consts  --      1.0872                 1.8025                 1.8300
 IR Inten    --     25.5579                13.7650                13.2859

                     16                     17                     18
                      A                      A                      A
 Frequencies --    525.4244               587.0030               610.9325
 Red. masses --      6.2947                12.4474                16.9670
 Frc consts  --      1.0239                 2.5270                 3.7311
 IR Inten    --      7.8806                 0.5437               103.5491

                     19                     20                     21
                      A                      A                      A
 Frequencies --    622.3075               634.6975               731.2945
 Red. masses --      5.6248                 8.4406                12.0108
 Frc consts  --      1.2834                 2.0034                 3.7845
 IR Inten    --      6.4942                 1.7305                43.8023

                     22                     23                     24
                      A                      A                      A
 Frequencies --    769.8973               809.0295               838.4769
 Red. masses --      5.5014                12.9925                12.4036
 Frc consts  --      1.9213                 5.0104                 5.1378
 IR Inten    --     16.1129                84.1352               148.4320

                     25                     26                     27
                      A                      A                      A
 Frequencies --    878.0225               968.8632              1007.6148
 Red. masses --      1.4229                 1.4062                 1.3361
 Frc consts  --      0.6463                 0.7777                 0.7992
 IR Inten    --     21.0132                 3.8330                 0.2787

                     28                     29                     30
                      A                      A                      A
 Frequencies --   1037.6566              1112.9556              1142.4860
 Red. masses --      4.8542                 4.8225                 2.6549
 Frc consts  --      3.0795                 3.5195                 2.0417
 IR Inten    --     40.1783                94.6643                57.0385

                     31                     32                     33
                      A                      A                      A
 Frequencies --   1177.8339              1227.6409              1228.2199
 Red. masses --      1.5949                10.1883                11.7849
 Frc consts  --      1.3036                 9.0468                10.4744
 IR Inten    --     17.2416               264.9148               141.2514

                     34                     35                     36
                      A                      A                      A
 Frequencies --   1242.9737              1338.7057              1350.6410
 Red. masses --      7.1566                 1.4598                 4.6731
 Frc consts  --      6.5145                 1.5414                 5.0227
 IR Inten    --    160.3240                 3.8997               229.0469

                     37                     38                     39
                      A                      A                      A
 Frequencies --   1377.6505              1430.2074              1442.3425
 Red. masses --      5.9787                 7.8731                 5.0138
 Frc consts  --      6.6855                 9.4884                 6.1455
 IR Inten    --     89.0806                76.7668               157.3103

                     40                     41                     42
                      A                      A                      A
 Frequencies --   1522.1156              1654.1002              1673.4041
 Red. masses --      2.6831                 7.1544                 6.2752
 Frc consts  --      3.6625                11.5331                10.3533
 IR Inten    --      2.2246                24.9717                32.8450

                     43                     44                     45
                      A                      A                      A
 Frequencies --   3234.4629              3243.8403              3266.0110
 Red. masses --      1.0921                 1.0911                 1.0951
 Frc consts  --      6.7319                 6.7643                 6.8821
 IR Inten    --      2.8494                 0.2872                 3.6027

 - Thermochemistry -
 -------------------
 Temperature   298.150 Kelvin.  Pressure   1.00000 Atm.
 Atom     1 has atomic number  9 and mass  18.99840

 Molecular mass:   228.98206 amu.
 Principal axes and moments of inertia in atomic units:
                           1         2         3
     Eigenvalues --  1004.786036538.749636845.70851
           X            1.00000  -0.00209   0.00230
           Y            0.00207   0.99996   0.00836
           Z           -0.00232  -0.00835   0.99996
 This molecule is an asymmetric top.
 Rotational symmetry number  1.
 Warning -- assumption of classical behavior for rotation
           may cause significant error
 Rotational temperatures (Kelvin)      0.08620     0.01325     0.01265
 Rotational constants (GHZ):           1.79614     0.27601     0.26363
 Zero-point vibrational energy     255497.4 (Joules/Mol)
                                   61.06533 (Kcal/Mol)
 Warning -- explicit consideration of  18 degrees of freedom as
           vibrations may cause significant error
 Vibrational temperatures:     22.14    58.11    82.42   182.25   219.29
          (Kelvin)            304.89   324.21   381.25   486.15   567.91
                              580.10   592.85   617.27   678.70   699.31
                              755.97   844.57   879.00   895.36   913.19
                             1052.17  1107.71  1164.01  1206.38  1263.28
                             1393.98  1449.73  1492.96  1601.29  1643.78
                             1694.64  1766.30  1767.13  1788.36  1926.10
                             1943.27  1982.13  2057.75  2075.21  2189.98
                             2379.88  2407.66  4653.67  4667.16  4699.06

 Zero-point correction=                           0.097314 (Hartree/Particle)
 Thermal correction to Energy=                    0.109114
 Thermal correction to Enthalpy=                  0.110059
 Thermal correction to Gibbs Free Energy=         0.056425
 Sum of electronic and zero-point Energies=          -1232.320932
 Sum of electronic and thermal Energies=             -1232.309131
 Sum of electronic and thermal Enthalpies=           -1232.308187
 Sum of electronic and thermal Free Energies=        -1232.361821

                     E (Thermal)             CV                S
                      KCal/Mol        Cal/Mol-Kelvin    Cal/Mol-Kelvin
 Total                   68.470             42.632            112.882
 Electronic               0.000              0.000              0.000
 Translational            0.889              2.981             42.188
 Rotational               0.889              2.981             32.175
 Vibrational             66.693             36.671             38.519
 Vibration     1          0.593              1.986              7.155
 Vibration     2          0.594              1.981              5.240
 Vibration     3          0.596              1.975              4.549
 Vibration     4          0.611              1.926              2.996
 Vibration     5          0.619              1.900              2.642
 Vibration     6          0.643              1.823              2.027
 Vibration     7          0.650              1.802              1.916
 Vibration     8          0.671              1.737              1.629
 Vibration     9          0.718              1.600              1.222
 Vibration    10          0.762              1.481              0.982
 Vibration    11          0.769              1.463              0.951
 Vibration    12          0.776              1.444              0.919
 Vibration    13          0.790              1.407              0.862
 Vibration    14          0.829              1.313              0.733
 Vibration    15          0.842              1.281              0.694
 Vibration    16          0.880              1.194              0.598
 Vibration    17          0.944              1.060              0.473
 Vibration    18          0.970              1.009              0.431

 Optimization completed.
    -- Stationary point found.
 Normal termination of Gaussian 16 at Mon Feb 26 12:56:37 2024.
 Gaussian 16:  ES64L-G16RevA.03 25-Dec-2016

 ----------------------------------------------------------------------
 # TD(NStates=10, Root=1) APFD/6-31G* volume pop=NPA density=current Ge
 om=AllCheck Guess=Read
 ----------------------------------------------------------------------

 Structure from the checkpoint file:  "MCJUWZWWFSIMHG-UHFFFAOYSA-N_conf_0_2.chk"
 ----------------------------------
 MCJUWZWWFSIMHG-UHFFFAOYSA-N_conf_0
 ----------------------------------
 Charge =  0 Multiplicity = 1

                         Standard orientation:
 ---------------------------------------------------------------------
 Center     Atomic      Atomic             Coordinates (Angstroms)
 Number     Number       Type             X           Y           Z
 ---------------------------------------------------------------------
      1          9           0       -3.104646   -0.631837    1.332681
      2         16           0       -2.850298    0.020157   -0.109042
      3          6           0       -1.053983    0.052609   -0.064598
      4          7           0       -0.463210   -1.131199   -0.069089
      5          6           0        0.865865   -1.135938   -0.058842
      6          6           0        1.621618    0.038669   -0.050350
      7          6           0        3.125952   -0.032628    0.011364
      8          9           0        3.589514   -1.134467   -0.599711
      9          9           0        3.551282   -0.066550    1.286140
     10          9           0        3.689958    1.037134   -0.574363
     11          6           0        0.973298    1.268413   -0.051067
     12          6           0       -0.418416    1.287814   -0.056376
     13          8           0       -3.338880    1.378522   -0.038785
     14          8           0       -3.320749   -0.929516   -1.083833
     15          1           0        1.348289   -2.109589   -0.065899
     16          1           0        1.544617    2.191705   -0.053177
     17          1           0       -0.989595    2.209554   -0.055185
 ---------------------------------------------------------------------

 SCF Done:  E(RAPFD) =  -1232.41824543     A.U. after    2 cycles

 Excitation energies and oscillator strengths:

 Excited State   1:      Singlet-A      4.6923 eV  264.23 nm  f=0.0028  <S**2>=0.000
      57 -> 58         0.70220
 This state for optimization and/or second-order correction.
 Total Energy, E(TD-HF/TD-DFT) =  -1232.24580606
 Copying the excited state density for this state as the 1-particle RhoCI density.

 Excited State   2:      Singlet-A      5.2332 eV  236.92 nm  f=0.0016  <S**2>=0.000
      57 -> 59         0.70081

 Excited State   3:      Singlet-A      5.5053 eV  225.21 nm  f=0.0746  <S**2>=0.000
      54 -> 58         0.22197
      54 -> 59        -0.25057
      56 -> 58         0.55224
      56 -> 59         0.26092

 Excited State   4:      Singlet-A      5.8863 eV  210.63 nm  f=0.0181  <S**2>=0.000
      53 -> 58        -0.11909
      54 -> 58         0.10946
      55 -> 58         0.61967
      56 -> 58        -0.20387
      56 -> 59         0.19517

 Excited State   5:      Singlet-A      6.1603 eV  201.26 nm  f=0.0954  <S**2>=0.000
      52 -> 58        -0.12769
      54 -> 58         0.46449
      55 -> 58        -0.28443
      56 -> 58        -0.27082
      56 -> 59         0.30846

 Excited State   6:      Singlet-A      6.4214 eV  193.08 nm  f=0.0084  <S**2>=0.000
      52 -> 58         0.63587
      53 -> 58         0.17495
      56 -> 59         0.19520

 Excited State   7:      Singlet-A      6.4437 eV  192.41 nm  f=0.0046  <S**2>=0.000
      52 -> 58        -0.24312
      53 -> 58         0.61343
      56 -> 59         0.18782

 Excited State   8:      Singlet-A      6.6311 eV  186.97 nm  f=0.0058  <S**2>=0.000
      53 -> 58         0.10932
      54 -> 58         0.11894
      54 -> 59        -0.11331
      55 -> 59         0.65598
      56 -> 59        -0.12974

 Excited State   9:      Singlet-A      6.9833 eV  177.54 nm  f=0.0402  <S**2>=0.000
      52 -> 59         0.39000
      53 -> 59         0.42596
      54 -> 58        -0.18188
      54 -> 59        -0.27039
      56 -> 59         0.17301

 Excited State  10:      Singlet-A      7.1562 eV  173.25 nm  f=0.0146  <S**2>=0.000
      52 -> 59         0.56588
      53 -> 59        -0.36892
      54 -> 58         0.10320
      56 -> 59        -0.11156

 The electronic state is 1-A.
 Alpha  occ. eigenvalues --  -89.24437 -24.80166 -24.80127 -24.79604 -24.79525
 Alpha  occ. eigenvalues --  -19.22817 -19.22621 -14.42675 -10.48720 -10.32547
 Alpha  occ. eigenvalues --  -10.30359 -10.28931 -10.28830 -10.28266  -8.22344
 Alpha  occ. eigenvalues --   -6.17278  -6.16938  -6.16832  -1.35607  -1.28702
 Alpha  occ. eigenvalues --   -1.26813  -1.26373  -1.14783  -1.06691  -1.02838
 Alpha  occ. eigenvalues --   -0.89042  -0.85605  -0.77522  -0.72016  -0.70600
 Alpha  occ. eigenvalues --   -0.67008  -0.62582  -0.62307  -0.61902  -0.60351
 Alpha  occ. eigenvalues --   -0.56052  -0.54699  -0.51920  -0.51286  -0.50338
 Alpha  occ. eigenvalues --   -0.49439  -0.49297  -0.47618  -0.46493  -0.45903
 Alpha  occ. eigenvalues --   -0.45763  -0.45360  -0.44704  -0.43571  -0.41607
 Alpha  occ. eigenvalues --   -0.40366  -0.37144  -0.36465  -0.34928  -0.34526
 Alpha  occ. eigenvalues --   -0.32635  -0.31804
 Alpha virt. eigenvalues --   -0.09114  -0.06927   0.02116   0.04740   0.08265
 Alpha virt. eigenvalues --    0.08679   0.10603   0.11875   0.13012   0.14019
 Alpha virt. eigenvalues --    0.16741   0.19808   0.20131   0.20952   0.23816

 Mulliken charges:
               1
     1  F   -0.292722
     2  S    1.252926
     3  C   -0.071571
     4  N   -0.329648
     5  C    0.069217
     6  C   -0.153860
     7  C    0.825616
     8  F   -0.270580
     9  F   -0.256736
    10  F   -0.265614
    11  C   -0.161220
    12  C   -0.146820
    13  O   -0.472350
    14  O   -0.453779
    15  H    0.254558
    16  H    0.219922
    17  H    0.252660
 Sum of Mulliken charges =  -0.00000

 Dipole moment (field-independent basis, Debye):
    X=              2.6785    Y=             -0.1321    Z=              0.5000  Tot=              2.7280
 Quadrupole moment (field-independent basis, Debye-Ang):
   XX=           -101.3775   YY=            -76.4929   ZZ=            -85.5036
   XY=             -0.2760   XZ=             -2.9290   YZ=             -1.1962

 Summary of Natural Population Analysis:

                                       Natural Population
                Natural  -----------------------------------------------
    Atom  No    Charge         Core      Valence    Rydberg      Total
 -----------------------------------------------------------------------
      F    1   -0.49726      1.99997     7.48714    0.01016     9.49726
      S    2    2.40872      9.99880     3.38423    0.20825    13.59128
      C    3   -0.26142      1.99877     4.22610    0.03655     6.26142
      N    4   -0.11031      1.99883     5.09418    0.01729     7.11031
      C    5    0.04414      1.99905     3.93536    0.02144     5.95586
      C    6   -0.29072      1.99884     4.27499    0.01688     6.29072
      C    7    1.12344      1.99908     2.80740    0.07008     4.87656
      F    8   -0.36083      1.99993     7.35438    0.00652     9.36083
      F    9   -0.35754      1.99993     7.35098    0.00663     9.35754
      F   10   -0.35382      1.99993     7.34730    0.00659     9.35382
      C   11   -0.23179      1.99904     4.21505    0.01770     6.23179
      C   12   -0.21801      1.99896     4.20267    0.01638     6.21801
      O   13   -0.88836      1.99988     6.86485    0.02363     8.88836
      O   14   -0.87803      1.99988     6.85354    0.02461     8.87803
      H   15    0.28718      0.00000     0.71160    0.00123     0.71282
      H   16    0.28192      0.00000     0.71700    0.00108     0.71808
      H   17    0.30268      0.00000     0.69641    0.00091     0.69732
 =======================================================================
   * Total *    0.00000     35.99090    77.52317    0.48594   114.00000

 Normal termination of Gaussian 16 at Mon Feb 26 13:02:13 2024.
