 Gaussian 16, Revision A.03,

 --------------------------------
 # opt=CalcFc APFD/6-31G* scf=xqc
 --------------------------------

 ----------------------------------
 WNKAAUWKENUQEO-UHFFFAOYSA-N_conf_0
 ----------------------------------
 Symbolic Z-matrix:
 Charge =  0 Multiplicity = 1

 SCF Done:  E(RAPFD) =  -1369.84141156     A.U. after   17 cycles
 SCF Done:  E(RAPFD) =  -1369.84954413     A.U. after   15 cycles
 SCF Done:  E(RAPFD) =  -1369.85132293     A.U. after   15 cycles
 SCF Done:  E(RAPFD) =  -1369.85240764     A.U. after   15 cycles
 SCF Done:  E(RAPFD) =  -1369.85295113     A.U. after   15 cycles
 SCF Done:  E(RAPFD) =  -1369.85310153     A.U. after   11 cycles
 SCF Done:  E(RAPFD) =  -1369.85314837     A.U. after   11 cycles
 SCF Done:  E(RAPFD) =  -1369.85315704     A.U. after   12 cycles
 SCF Done:  E(RAPFD) =  -1369.85315871     A.U. after    9 cycles
 Optimization completed.
    -- Stationary point found.
 Normal termination of Gaussian 16 at Mon Feb 26 12:48:32 2024.

 ----------------------------------------------------------------------
 # freq APFD/6-31G* volume NMR pop=NPA density=current Geom=AllCheck Gu
 ess=Read
 ----------------------------------------------------------------------

 Structure from the checkpoint file:  "WNKAAUWKENUQEO-UHFFFAOYSA-N_conf_0_1.chk"
 ----------------------------------
 WNKAAUWKENUQEO-UHFFFAOYSA-N_conf_0
 ----------------------------------
 Charge =  0 Multiplicity = 1

 SCF Done:  E(RAPFD) =  -1369.85315871     A.U. after    1 cycles

      1  O    Isotropic =   107.8851   Anisotropy =    76.8614

      2  S    Isotropic =   250.1351   Anisotropy =   362.2155

      3  C    Isotropic =    35.0721   Anisotropy =    54.7437

      4  N    Isotropic =   -69.4059   Anisotropy =   430.1742

      5  C    Isotropic =    50.3660   Anisotropy =   115.4380

      6  C    Isotropic =    57.7816   Anisotropy =   125.3363

      7  C    Isotropic =    77.0031   Anisotropy =   158.3594

      8  C    Isotropic =    70.5203   Anisotropy =   170.7440

      9  C    Isotropic =    71.6145   Anisotropy =   168.8015

     10  C    Isotropic =    71.2279   Anisotropy =   160.9246

     11  S    Isotropic =   303.1391   Anisotropy =   157.4365

     12  F    Isotropic =   113.2474   Anisotropy =   341.2549

     13  O    Isotropic =   104.1786   Anisotropy =    54.3082

     14  H    Isotropic =    24.2104   Anisotropy =     7.0546

     15  H    Isotropic =    24.4252   Anisotropy =     4.7906

     16  H    Isotropic =    24.4078   Anisotropy =     4.6707

     17  H    Isotropic =    23.8265   Anisotropy =     5.8324

  Exact polarizability: 176.056  -6.248 117.656  -3.552  -1.556  53.044
 Approx polarizability: 263.092 -12.008 233.864  -6.411  -4.660  87.526

                      1                      2                      3
                      A                      A                      A
 Frequencies --     32.3602                74.0960               123.0761
 Red. masses --     10.5226                 8.6213                10.3572
 Frc consts  --      0.0065                 0.0279                 0.0924
 IR Inten    --      0.1948                 0.0775                 0.6433

                      4                      5                      6
                      A                      A                      A
 Frequencies --    189.2213               200.7849               262.4116
 Red. masses --      8.2660                 6.1912                12.8425
 Frc consts  --      0.1744                 0.1471                 0.5210
 IR Inten    --      0.3301                 2.0677                 2.0998

                      7                      8                      9
                      A                      A                      A
 Frequencies --    289.2995               332.8062               400.0087
 Red. masses --     11.4492                 8.3485                 9.6627
 Frc consts  --      0.5646                 0.5448                 0.9109
 IR Inten    --      0.7659                 0.9750                 6.7242

                     10                     11                     12
                      A                      A                      A
 Frequencies --    437.6976               464.1886               475.5333
 Red. masses --      3.6046                12.1858                11.6068
 Frc consts  --      0.4069                 1.5470                 1.5464
 IR Inten    --     10.5900                 7.3655                 6.5248

                     13                     14                     15
                      A                      A                      A
 Frequencies --    513.6522               541.2119               561.0861
 Red. masses --      8.6107                 5.7326                11.9177
 Frc consts  --      1.3385                 0.9893                 2.2106
 IR Inten    --      0.7295                 3.8560                92.1129

                     16                     17                     18
                      A                      A                      A
 Frequencies --    610.3990               633.5491               705.1770
 Red. masses --      6.5438                11.3431                11.3969
 Frc consts  --      1.4365                 2.6825                 3.3391
 IR Inten    --      1.7072                98.6420                22.5775

                     19                     20                     21
                      A                      A                      A
 Frequencies --    728.7096               741.9374               778.8837
 Red. masses --      7.2248                 2.7165                 1.6050
 Frc consts  --      2.2604                 0.8811                 0.5737
 IR Inten    --      1.2438                15.7249                43.6125

                     22                     23                     24
                      A                      A                      A
 Frequencies --    821.0578               875.5332               877.8664
 Red. masses --     20.6769                 1.3780                 6.4060
 Frc consts  --      8.2126                 0.6224                 2.9086
 IR Inten    --    227.3000                 0.8609                31.8958

                     25                     26                     27
                      A                      A                      A
 Frequencies --    963.3033              1002.9543              1032.8273
 Red. masses --      1.3507                 1.2880                 9.9325
 Frc consts  --      0.7385                 0.7634                 6.2426
 IR Inten    --      1.3820                 0.0007                20.8864

                     28                     29                     30
                      A                      A                      A
 Frequencies --   1057.7025              1113.6551              1167.6681
 Red. masses --      2.0143                 5.7012                 1.4573
 Frc consts  --      1.3277                 4.1660                 1.1706
 IR Inten    --      5.8511                16.7699                 2.4972

                     31                     32                     33
                      A                      A                      A
 Frequencies --   1210.5611              1217.9004              1287.9951
 Red. masses --      1.1778                15.6746                 1.9605
 Frc consts  --      1.0169                13.6985                 1.9162
 IR Inten    --      1.2003               225.9813                 5.3311

                     34                     35                     36
                      A                      A                      A
 Frequencies --   1331.7520              1392.4251              1442.9784
 Red. masses --      2.4855                 7.4332                20.6955
 Frc consts  --      2.5972                 8.4913                25.3890
 IR Inten    --      2.5365                18.4769               178.8214

                     37                     38                     39
                      A                      A                      A
 Frequencies --   1482.6525              1513.4060              1567.8972
 Red. masses --      2.5654                 2.7510                 9.2094
 Frc consts  --      3.3226                 3.7123                13.3388
 IR Inten    --     11.8998                 4.2929                62.5925

                     40                     41                     42
                      A                      A                      A
 Frequencies --   1627.4912              1676.3133              3214.3316
 Red. masses --      5.9612                 6.4225                 1.0868
 Frc consts  --      9.3030                10.6332                 6.6155
 IR Inten    --      4.6635                 1.9446                 1.4604

                     43                     44                     45
                      A                      A                      A
 Frequencies --   3227.3008              3237.4073              3246.1065
 Red. masses --      1.0904                 1.0955                 1.0963
 Frc consts  --      6.6915                 6.7647                 6.8065
 IR Inten    --      4.8288                 7.7792                 4.5518

 - Thermochemistry -
 -------------------
 Temperature   298.150 Kelvin.  Pressure   1.00000 Atm.
 Atom     1 has atomic number  8 and mass  15.99491

 Molecular mass:   216.96675 amu.
 Principal axes and moments of inertia in atomic units:
                           1         2         3
     Eigenvalues --  1037.664934685.885705344.29726
           X            0.99998  -0.00508  -0.00350
           Y            0.00506   0.99997  -0.00503
           Z            0.00353   0.00501   0.99998
 This molecule is an asymmetric top.
 Rotational symmetry number  1.
 Warning -- assumption of classical behavior for rotation
           may cause significant error
 Rotational temperatures (Kelvin)      0.08347     0.01848     0.01621
 Rotational constants (GHZ):           1.73923     0.38514     0.33769
 Zero-point vibrational energy     279239.4 (Joules/Mol)
                                   66.73981 (Kcal/Mol)
 Warning -- explicit consideration of  16 degrees of freedom as
           vibrations may cause significant error
 Vibrational temperatures:     46.56   106.61   177.08   272.25   288.88
          (Kelvin)            377.55   416.24   478.83   575.52   629.75
                              667.86   684.19   739.03   778.68   807.28
                              878.23   911.54  1014.59  1048.45  1067.48
                             1120.64  1181.32  1259.70  1263.05  1385.98
                             1443.03  1486.01  1521.80  1602.30  1680.01
                             1741.73  1752.29  1853.14  1916.09  2003.39
                             2076.12  2133.21  2177.45  2255.85  2341.60
                             2411.84  4624.71  4643.37  4657.91  4670.42

 Zero-point correction=                           0.106357 (Hartree/Particle)
 Thermal correction to Energy=                    0.116781
 Thermal correction to Enthalpy=                  0.117725
 Thermal correction to Gibbs Free Energy=         0.068692
 Sum of electronic and zero-point Energies=          -1369.746802
 Sum of electronic and thermal Energies=             -1369.736378
 Sum of electronic and thermal Enthalpies=           -1369.735434
 Sum of electronic and thermal Free Energies=        -1369.784467

                     E (Thermal)             CV                S
                      KCal/Mol        Cal/Mol-Kelvin    Cal/Mol-Kelvin
 Total                   73.281             39.377            103.199
 Electronic               0.000              0.000              0.000
 Translational            0.889              2.981             42.027
 Rotational               0.889              2.981             31.630
 Vibrational             71.504             33.415             29.542
 Vibration     1          0.594              1.983              5.679
 Vibration     2          0.599              1.966              4.041
 Vibration     3          0.610              1.930              3.051
 Vibration     4          0.633              1.855              2.235
 Vibration     5          0.638              1.839              2.126
 Vibration     6          0.670              1.742              1.646
 Vibration     7          0.686              1.694              1.478
 Vibration     8          0.715              1.610              1.246
 Vibration     9          0.766              1.470              0.963
 Vibration    10          0.798              1.388              0.834
 Vibration    11          0.822              1.329              0.754
 Vibration    12          0.832              1.304              0.722
 Vibration    13          0.869              1.220              0.625
 Vibration    14          0.896              1.159              0.563
 Vibration    15          0.917              1.115              0.522
 Vibration    16          0.969              1.010              0.432

 Optimization completed.
    -- Stationary point found.
 Normal termination of Gaussian 16 at Mon Feb 26 12:53:54 2024.
 Gaussian 16:  ES64L-G16RevA.03 25-Dec-2016

 ----------------------------------------------------------------------
 # TD(NStates=10, Root=1) APFD/6-31G* volume pop=NPA density=current Ge
 om=AllCheck Guess=Read
 ----------------------------------------------------------------------

 Structure from the checkpoint file:  "WNKAAUWKENUQEO-UHFFFAOYSA-N_conf_0_2.chk"
 ----------------------------------
 WNKAAUWKENUQEO-UHFFFAOYSA-N_conf_0
 ----------------------------------
 Charge =  0 Multiplicity = 1

                         Standard orientation:
 ---------------------------------------------------------------------
 Center     Atomic      Atomic             Coordinates (Angstroms)
 Number     Number       Type             X           Y           Z
 ---------------------------------------------------------------------
      1          8           0        2.958764   -1.188224   -0.282978
      2         16           0        2.445928    0.151158   -0.118203
      3          6           0        0.669741    0.044479   -0.073234
      4          7           0       -0.076118    1.092874   -0.066571
      5          6           0       -1.397979    0.712324   -0.029508
      6          6           0       -1.622662   -0.686343   -0.008304
      7          6           0       -2.918368   -1.209859    0.024193
      8          6           0       -3.977673   -0.313882    0.039323
      9          6           0       -3.764306    1.076724    0.020079
     10          6           0       -2.483618    1.599117   -0.014890
     11         16           0       -0.099537   -1.529074   -0.038215
     12          9           0        2.702863    0.551557    1.410606
     13          8           0        2.870678    1.270806   -0.914347
     14          1           0       -3.092168   -2.281723    0.038581
     15          1           0       -4.994458   -0.696889    0.066484
     16          1           0       -4.619419    1.746886    0.032359
     17          1           0       -2.295492    2.668233   -0.031549
 ---------------------------------------------------------------------

 SCF Done:  E(RAPFD) =  -1369.85315871     A.U. after    2 cycles

 Excitation energies and oscillator strengths:

 Excited State   1:      Singlet-A      4.3450 eV  285.35 nm  f=0.0411  <S**2>=0.000
      54 -> 56        -0.15815
      54 -> 57         0.15083
      55 -> 56         0.66378
 This state for optimization and/or second-order correction.
 Total Energy, E(TD-HF/TD-DFT) =  -1369.69348154
 Copying the excited state density for this state as the 1-particle RhoCI density.

 Excited State   2:      Singlet-A      4.7482 eV  261.12 nm  f=0.2475  <S**2>=0.000
      54 -> 56         0.65950
      55 -> 56         0.16911
      55 -> 57        -0.14181

 Excited State   3:      Singlet-A      5.0277 eV  246.60 nm  f=0.0015  <S**2>=0.000
      53 -> 56         0.69873

 Excited State   4:      Singlet-A      5.7199 eV  216.76 nm  f=0.0035  <S**2>=0.000
      54 -> 57        -0.11576
      54 -> 58        -0.12217
      55 -> 58         0.66582

 Excited State   5:      Singlet-A      5.8061 eV  213.54 nm  f=0.0774  <S**2>=0.000
      52 -> 56        -0.20403
      54 -> 56         0.11688
      54 -> 57         0.40382
      54 -> 59         0.19625
      55 -> 57         0.36445
      55 -> 58         0.13990
      55 -> 59        -0.25013

 Excited State   6:      Singlet-A      6.0238 eV  205.82 nm  f=0.0543  <S**2>=0.000
      52 -> 56         0.39758
      54 -> 57         0.33590
      55 -> 57        -0.31980
      55 -> 59        -0.31187

 Excited State   7:      Singlet-A      6.0541 eV  204.79 nm  f=0.0125  <S**2>=0.000
      50 -> 56         0.14459
      51 -> 56         0.62497
      52 -> 56        -0.16159
      54 -> 58        -0.10943
      55 -> 57        -0.14696

 Excited State   8:      Singlet-A      6.0860 eV  203.72 nm  f=0.0063  <S**2>=0.000
      54 -> 58         0.67071
      54 -> 59        -0.10393
      55 -> 58         0.11187

 Excited State   9:      Singlet-A      6.2998 eV  196.81 nm  f=0.1890  <S**2>=0.000
      50 -> 56         0.11178
      51 -> 56         0.20624
      52 -> 56         0.47494
      53 -> 58         0.16325
      54 -> 57        -0.12979
      55 -> 57         0.38791

 Excited State  10:      Singlet-A      6.4213 eV  193.08 nm  f=0.0040  <S**2>=0.000
      49 -> 56         0.63065
      50 -> 56        -0.27562

 The electronic state is 1-A.
 Alpha  occ. eigenvalues --  -89.25071 -89.03754 -24.79665 -19.22926 -19.22925
 Alpha  occ. eigenvalues --  -14.41922 -10.33441 -10.28608 -10.28164 -10.25485
 Alpha  occ. eigenvalues --  -10.24948 -10.24722 -10.24484  -8.22892  -8.05307
 Alpha  occ. eigenvalues --   -6.17817  -6.17480  -6.17427  -5.99993  -5.99633
 Alpha  occ. eigenvalues --   -5.99228  -1.28926  -1.15036  -1.07004  -1.03180
 Alpha  occ. eigenvalues --   -0.90090  -0.85633  -0.80469  -0.78361  -0.73262
 Alpha  occ. eigenvalues --   -0.65627  -0.64362  -0.62847  -0.57313  -0.54783
 Alpha  occ. eigenvalues --   -0.53709  -0.52832  -0.51528  -0.48702  -0.47643
 Alpha  occ. eigenvalues --   -0.47391  -0.45979  -0.45340  -0.43558  -0.40678
 Alpha  occ. eigenvalues --   -0.40459  -0.38704  -0.38274  -0.36721  -0.36330
 Alpha  occ. eigenvalues --   -0.34674  -0.34387  -0.32528  -0.28142  -0.27134
 Alpha virt. eigenvalues --   -0.08594  -0.03088  -0.01521  -0.00278   0.02639
 Alpha virt. eigenvalues --    0.05665   0.07588   0.09645   0.10935   0.13336
 Alpha virt. eigenvalues --    0.13521   0.14078   0.16696   0.17239   0.20564

 Mulliken charges:
               1
     1  O   -0.501996
     2  S    1.248866
     3  C   -0.281902
     4  N   -0.440694
     5  C    0.281320
     6  C   -0.197571
     7  C   -0.154904
     8  C   -0.171408
     9  C   -0.157462
    10  C   -0.120621
    11  S    0.390064
    12  F   -0.300806
    13  O   -0.460053
    14  H    0.223710
    15  H    0.197168
    16  H    0.213544
    17  H    0.232745
 Sum of Mulliken charges =  -0.00000

 Dipole moment (field-independent basis, Debye):
    X=            -10.0947    Y=             -0.8516    Z=              0.7941  Tot=             10.1616
 Quadrupole moment (field-independent basis, Debye-Ang):
   XX=            -76.5344   YY=            -82.3236   ZZ=            -88.9922
   XY=             -2.3544   XZ=              2.3641   YZ=              0.9065

 Summary of Natural Population Analysis:

                                       Natural Population
                Natural  -----------------------------------------------
    Atom  No    Charge         Core      Valence    Rydberg      Total
 -----------------------------------------------------------------------
      O    1   -0.91995      1.99988     6.89634    0.02372     8.91995
      S    2    2.40463      9.99865     3.38386    0.21286    13.59537
      C    3   -0.38048      1.99902     4.34217    0.03929     6.38048
      N    4   -0.45625      1.99926     5.42737    0.02962     7.45625
      C    5    0.11240      1.99895     3.86403    0.02463     5.88760
      C    6   -0.26728      1.99882     4.24964    0.01883     6.26728
      C    7   -0.11121      1.99898     4.09540    0.01683     6.11121
      C    8   -0.30273      1.99916     4.28831    0.01526     6.30273
      C    9   -0.15686      1.99914     4.14332    0.01440     6.15686
      C   10   -0.12116      1.99902     4.10667    0.01547     6.12116
      S   11    0.52594      9.99889     5.42492    0.05025    15.47406
      F   12   -0.50769      1.99997     7.49764    0.01008     9.50769
      O   13   -0.88538      1.99988     6.86113    0.02437     8.88538
      H   14    0.26661      0.00000     0.73256    0.00082     0.73339
      H   15    0.26283      0.00000     0.73652    0.00065     0.73717
      H   16    0.26203      0.00000     0.73732    0.00065     0.73797
      H   17    0.27455      0.00000     0.72442    0.00103     0.72545
 =======================================================================
   * Total *   -0.00000     41.98962    67.51163    0.49875   110.00000

 Normal termination of Gaussian 16 at Mon Feb 26 13:00:51 2024.
