 Gaussian 16, Revision C.01,

 -------------------------------
 #p apfd/6-31G* opt freq=noraman
 -------------------------------

 -------
 ID-4001
 -------
 Symbolic Z-matrix:
 Charge =  0 Multiplicity = 1

 SCF Done:  E(RAPFD) =  -1277.78877735     A.U. after   15 cycles
 SCF Done:  E(RAPFD) =  -1277.79536868     A.U. after   12 cycles
 SCF Done:  E(RAPFD) =  -1277.79591005     A.U. after   11 cycles
 SCF Done:  E(RAPFD) =  -1277.79594268     A.U. after   10 cycles
 SCF Done:  E(RAPFD) =  -1277.79595036     A.U. after    9 cycles
 SCF Done:  E(RAPFD) =  -1277.79595970     A.U. after   10 cycles
 SCF Done:  E(RAPFD) =  -1277.74939155     A.U. after   14 cycles
 SCF Done:  E(RAPFD) =  -1277.79646259     A.U. after   13 cycles
 SCF Done:  E(RAPFD) =  -1277.76527047     A.U. after   13 cycles
 SCF Done:  E(RAPFD) =  -1277.79792184     A.U. after   13 cycles
 SCF Done:  E(RAPFD) =  -1277.80042683     A.U. after   12 cycles
 SCF Done:  E(RAPFD) =  -1277.80044053     A.U. after   10 cycles
 SCF Done:  E(RAPFD) =  -1277.80044232     A.U. after    9 cycles
 SCF Done:  E(RAPFD) =  -1277.80044249     A.U. after    7 cycles
 SCF Done:  E(RAPFD) =  -1277.80044262     A.U. after    8 cycles
 SCF Done:  E(RAPFD) =  -1277.80044269     A.U. after    8 cycles
 SCF Done:  E(RAPFD) =  -1277.80044273     A.U. after    7 cycles
 SCF Done:  E(RAPFD) =  -1277.80044274     A.U. after    7 cycles
 Optimization completed.
    -- Stationary point found.
 Normal termination of Gaussian 16 at Fri Oct  4 16:20:35 2024.

 -------------------------------------------------------------------
 #P Geom=AllCheck Guess=TCheck SCRF=Check GenChk RAPFD/6-31G(d) Freq
 -------------------------------------------------------------------

 Structure from the checkpoint file:  "ID-4001.chk"
 -------
 ID-4001
 -------
 Charge =  0 Multiplicity = 1

 SCF Done:  E(RAPFD) =  -1277.80044274     A.U. after    1 cycles

  Exact polarizability:     337.266       6.500     156.941      -3.814       1.216      65.732
 Approx polarizability:     451.311      16.475     299.521      -6.008       4.160     107.191

                      1                      2                      3
                      A                      A                      A
 Frequencies --     23.1268                33.4769                47.2869
 Red. masses --      6.4596                 8.0926                 5.2106
 Frc consts  --      0.0020                 0.0053                 0.0069
 IR Inten    --      0.3574                 0.2366                 1.5236

                      4                      5                      6
                      A                      A                      A
 Frequencies --     71.0435                93.5034               165.1828
 Red. masses --      7.0596                 8.4717                 9.9099
 Frc consts  --      0.0210                 0.0436                 0.1593
 IR Inten    --      0.6849                 1.7253                 0.8093

                      7                      8                      9
                      A                      A                      A
 Frequencies --    185.8854               201.4700               251.5517
 Red. masses --      8.1664                10.0366                 4.1435
 Frc consts  --      0.1663                 0.2400                 0.1545
 IR Inten    --      0.4957                 0.2905                 1.3403

                     10                     11                     12
                      A                      A                      A
 Frequencies --    280.5713               302.1629               364.8522
 Red. masses --      7.1007                 8.3467                 6.9076
 Frc consts  --      0.3293                 0.4490                 0.5418
 IR Inten    --      0.3352                 1.3784                 3.2002

                     13                     14                     15
                      A                      A                      A
 Frequencies --    374.6318               397.0590               407.5493
 Red. masses --      6.4069                 8.2516                 3.4399
 Frc consts  --      0.5298                 0.7665                 0.3366
 IR Inten    --      5.8902                13.7623                 0.9112

                     16                     17                     18
                      A                      A                      A
 Frequencies --    438.9238               473.4418               484.7434
 Red. masses --      3.4521                10.0535                11.1884
 Frc consts  --      0.3918                 1.3277                 1.5490
 IR Inten    --      7.3412                 9.3425                 8.0685

                     19                     20                     21
                      A                      A                      A
 Frequencies --    517.5812               539.2083               570.7697
 Red. masses --      5.3429                 3.9168                 8.5424
 Frc consts  --      0.8433                 0.6710                 1.6396
 IR Inten    --      1.6870                12.3421                37.5644

                     22                     23                     24
                      A                      A                      A
 Frequencies --    576.9627               613.8666               622.2636
 Red. masses --      3.6436                 7.5974                 9.7693
 Frc consts  --      0.7146                 1.6868                 2.2288
 IR Inten    --      0.1596                63.9218                91.9057

                     25                     26                     27
                      A                      A                      A
 Frequencies --    632.7984               676.8324               749.5730
 Red. masses --      8.2719                 4.4087                 3.2702
 Frc consts  --      1.9516                 1.1899                 1.0825
 IR Inten    --     15.9022                 0.1381                 8.7970

                     28                     29                     30
                      A                      A                      A
 Frequencies --    754.7070               761.8339               765.3934
 Red. masses --      5.6080                 3.2907                 1.7307
 Frc consts  --      1.8820                 1.1253                 0.5974
 IR Inten    --     13.9426                12.0222                51.5012

                     31                     32                     33
                      A                      A                      A
 Frequencies --    820.7138               830.6963               835.0348
 Red. masses --     10.4554                 1.4574                 5.3568
 Frc consts  --      4.1493                 0.5925                 2.2007
 IR Inten    --    223.3976                38.7824                93.0465

                     34                     35                     36
                      A                      A                      A
 Frequencies --    872.0556               876.7968               899.0247
 Red. masses --      1.4471                 1.4861                 6.0268
 Frc consts  --      0.6484                 0.6731                 2.8700
 IR Inten    --      3.2541                 9.2335                 6.3946

                     37                     38                     39
                      A                      A                      A
 Frequencies --    944.3157               945.0848               945.7604
 Red. masses --      1.5559                 5.3817                 1.3539
 Frc consts  --      0.8175                 2.8321                 0.7135
 IR Inten    --      2.4799                 4.9770                 3.0850

                     40                     41                     42
                      A                      A                      A
 Frequencies --    986.8433              1004.6001              1033.5081
 Red. masses --      1.2596                 1.3263                 4.4702
 Frc consts  --      0.7227                 0.7886                 2.8132
 IR Inten    --      0.0009                 0.1122                22.4447

                     43                     44                     45
                      A                      A                      A
 Frequencies --   1046.5075              1070.6620              1136.9680
 Red. masses --      2.0660                 2.8471                 2.6492
 Frc consts  --      1.3331                 1.9229                 2.0178
 IR Inten    --      4.4656                14.2946                24.8469

                     46                     47                     48
                      A                      A                      A
 Frequencies --   1150.3645              1181.3265              1193.2982
 Red. masses --      1.5837                 1.5306                 1.1715
 Frc consts  --      1.2348                 1.2585                 0.9828
 IR Inten    --      6.3038                31.4365                13.2037

                     49                     50                     51
                      A                      A                      A
 Frequencies --   1214.5054              1225.1756              1255.9472
 Red. masses --      1.8999                 4.7672                 2.4675
 Frc consts  --      1.6511                 4.2161                 2.2932
 IR Inten    --    157.9396               153.0820                 9.7645

                     52                     53                     54
                      A                      A                      A
 Frequencies --   1310.7187              1340.0513              1347.7893
 Red. masses --      2.4596                 4.3716                 1.6497
 Frc consts  --      2.4896                 4.6252                 1.7656
 IR Inten    --      8.7018                 4.0778                 1.1000

                     55                     56                     57
                      A                      A                      A
 Frequencies --   1352.2534              1379.0477              1426.7164
 Red. masses --      2.2234                 4.8252                 6.2687
 Frc consts  --      2.3955                 5.4066                 7.5180
 IR Inten    --     11.2946                 5.9450                85.7871

                     58                     59                     60
                      A                      A                      A
 Frequencies --   1428.9405              1448.5854              1499.2404
 Red. masses --     10.7463                 4.0520                 2.6845
 Frc consts  --     12.9281                 5.0096                 3.5551
 IR Inten    --    109.1728                38.9978                19.3072

                     61                     62                     63
                      A                      A                      A
 Frequencies --   1514.9573              1537.4529              1623.3079
 Red. masses --      2.4615                 3.1040                 6.8043
 Frc consts  --      3.3286                 4.3230                10.5641
 IR Inten    --      5.5551                 2.3079                 5.3005

                     64                     65                     66
                      A                      A                      A
 Frequencies --   1647.5245              1659.9108              1666.4273
 Red. masses --      6.7772                 6.3489                 6.9807
 Frc consts  --     10.8383                10.3067                11.4214
 IR Inten    --     11.7157                85.3356                31.3998

                     67                     68                     69
                      A                      A                      A
 Frequencies --   1689.1355              3209.9687              3214.7762
 Red. masses --      7.2335                 1.0860                 1.0905
 Frc consts  --     12.1598                 6.5932                 6.6401
 IR Inten    --      2.5354                 1.1422                10.7858

                     70                     71                     72
                      A                      A                      A
 Frequencies --   3221.7124              3232.4803              3244.6820
 Red. masses --      1.0903                 1.0955                 1.0958
 Frc consts  --      6.6677                 6.7444                 6.7972
 IR Inten    --      6.6720                19.6483                 7.0548

                     73                     74                     75
                      A                      A                      A
 Frequencies --   3247.0038              3263.2372              3293.3214
 Red. masses --      1.0898                 1.0953                 1.0969
 Frc consts  --      6.7695                 6.8717                 7.0094
 IR Inten    --      0.4190                 1.6372                 2.3405

 - Thermochemistry -
 -------------------
 Temperature   298.150 Kelvin.  Pressure   1.00000 Atm.
 Atom     1 has atomic number  9 and mass  18.99840

 Molecular mass:   277.02089 amu.
 Principal axes and moments of inertia in atomic units:
                           1         2         3
     Eigenvalues --  1145.85148********************
           X            1.00000   0.00227  -0.00172
           Y           -0.00227   0.99999   0.00274
           Z            0.00173  -0.00273   0.99999
 This molecule is an asymmetric top.
 Rotational symmetry number  1.
 Warning -- assumption of classical behavior for rotation
           may cause significant error
 Rotational temperatures (Kelvin)      0.07559     0.00591     0.00562
 Rotational constants (GHZ):           1.57502     0.12315     0.11703
 Zero-point vibrational energy     500318.3 (Joules/Mol)
                                  119.57894 (Kcal/Mol)
 Warning -- explicit consideration of  23 degrees of freedom as
           vibrations may cause significant error
 Vibrational temperatures:     33.27    48.17    68.04   102.22   134.53
          (Kelvin)            237.66   267.45   289.87   361.93   403.68
                              434.75   524.94   539.01   571.28   586.37
                              631.51   681.18   697.44   744.68   775.80
                              821.21   830.12   883.22   895.30   910.46
                              973.81  1078.47  1085.86  1096.11  1101.23
                             1180.82  1195.19  1201.43  1254.69  1261.51
                             1293.50  1358.66  1359.77  1360.74  1419.85
                             1445.40  1486.99  1505.69  1540.44  1635.84
                             1655.12  1699.67  1716.89  1747.40  1762.75
                             1807.03  1885.83  1928.03  1939.17  1945.59
                             1984.14  2052.73  2055.93  2084.19  2157.07
                             2179.69  2212.05  2335.58  2370.42  2388.24
                             2397.62  2430.29  4618.43  4625.35  4635.33
                             4650.82  4668.37  4671.71  4695.07  4738.36

 Zero-point correction=                           0.190561 (Hartree/Particle)
 Thermal correction to Energy=                    0.205280
 Thermal correction to Enthalpy=                  0.206224
 Thermal correction to Gibbs Free Energy=         0.146288
 Sum of electronic and zero-point Energies=          -1277.609882
 Sum of electronic and thermal Energies=             -1277.595163
 Sum of electronic and thermal Enthalpies=           -1277.594219
 Sum of electronic and thermal Free Energies=        -1277.654155

                     E (Thermal)             CV                S
                      KCal/Mol        Cal/Mol-Kelvin    Cal/Mol-Kelvin
 Total                  128.815             57.063            126.147
 Electronic               0.000              0.000              0.000
 Translational            0.889              2.981             42.755
 Rotational               0.889              2.981             33.915
 Vibrational            127.038             51.102             49.477
 Vibration     1          0.593              1.985              6.346
 Vibration     2          0.594              1.983              5.612
 Vibration     3          0.595              1.979              4.928
 Vibration     4          0.598              1.968              4.124
 Vibration     5          0.603              1.954              3.585
 Vibration     6          0.624              1.885              2.490
 Vibration     7          0.632              1.859              2.268
 Vibration     8          0.638              1.838              2.120
 Vibration     9          0.664              1.760              1.720
 Vibration    10          0.680              1.710              1.530
 Vibration    11          0.694              1.670              1.405
 Vibration    12          0.738              1.545              1.101
 Vibration    13          0.746              1.524              1.061
 Vibration    14          0.764              1.476              0.974
 Vibration    15          0.772              1.454              0.935
 Vibration    16          0.799              1.385              0.830
 Vibration    17          0.830              1.309              0.728
 Vibration    18          0.841              1.284              0.697
 Vibration    19          0.873              1.211              0.616
 Vibration    20          0.894              1.163              0.567
 Vibration    21          0.927              1.094              0.503
 Vibration    22          0.933              1.081              0.491
 Vibration    23          0.973              1.003              0.426

 Optimization completed.
    -- Stationary point found.
 Normal termination of Gaussian 16 at Fri Oct  4 16:24:59 2024.
 Gaussian 16:  ES64L-G16RevC.01  3-Jul-2019

 -------------------------------------------------------
 #p apfd/6-31G* volume NMR pop=NPA geom=check guess=read
 -------------------------------------------------------

 -------
 ID-4001
 -------
 Structure from the checkpoint file:  "ID-4001.chk"
 Charge =  0 Multiplicity = 1

                         Standard orientation:
 ---------------------------------------------------------------------
 Center     Atomic      Atomic             Coordinates (Angstroms)
 Number     Number       Type             X           Y           Z
 ---------------------------------------------------------------------
      1          9           0       -4.682514    0.518832   -1.356228
      2         16           0       -4.383228   -0.069278    0.107786
      3          6           0       -2.595680   -0.030784    0.056983
      4          6           0       -1.903202   -1.234866    0.052094
      5          6           0       -0.515899   -1.160185    0.040484
      6          6           0        0.103557    0.095693    0.028940
      7          6           0        1.545442    0.224413    0.016299
      8          6           0        2.375430    1.308082    0.010744
      9          6           0        3.710950    0.796624   -0.001805
     10          6           0        4.996517    1.356170   -0.012119
     11          6           0        6.085492    0.496397   -0.023036
     12          6           0        5.915022   -0.900772   -0.023785
     13          6           0        4.650225   -1.479520   -0.013604
     14          6           0        3.574776   -0.601946   -0.002736
     15          8           0        2.259712   -0.947265    0.008347
     16          6           0       -0.724633    1.234565    0.030266
     17          7           0       -2.046726    1.176153    0.047482
     18          8           0       -4.897016    0.895150    1.047297
     19          8           0       -4.821047   -1.447539    0.088714
     20          1           0       -2.432806   -2.181283    0.057452
     21          1           0        0.088955   -2.061180    0.039639
     22          1           0        2.076918    2.347448    0.015976
     23          1           0        5.133641    2.434129   -0.011544
     24          1           0        7.092123    0.905969   -0.031155
     25          1           0        6.791456   -1.543326   -0.032450
     26          1           0        4.503997   -2.555049   -0.013968
     27          1           0       -0.294107    2.233177    0.017948
 ---------------------------------------------------------------------

 SCF Done:  E(RAPFD) =  -1277.80044274     A.U. after    1 cycles

      1  F    Isotropic =   122.2779   Anisotropy =   334.1823

      2  S    Isotropic =   235.0013   Anisotropy =   327.5448

      3  C    Isotropic =    45.2221   Anisotropy =   100.1142

      4  C    Isotropic =    74.2010   Anisotropy =   167.8347

      5  C    Isotropic =    67.1962   Anisotropy =   178.5678

      6  C    Isotropic =    68.7814   Anisotropy =   164.6721

      7  C    Isotropic =    49.6325   Anisotropy =    82.0033

      8  C    Isotropic =    90.8591   Anisotropy =   112.2477

      9  C    Isotropic =    70.9622   Anisotropy =   149.7070

     10  C    Isotropic =    76.4609   Anisotropy =   155.9491

     11  C    Isotropic =    74.6387   Anisotropy =   163.9033

     12  C    Isotropic =    72.1478   Anisotropy =   165.5647

     13  C    Isotropic =    86.9887   Anisotropy =   142.0156

     14  C    Isotropic =    46.4893   Anisotropy =   115.8147

     15  O    Isotropic =   109.4051   Anisotropy =   197.7602

     16  C    Isotropic =    53.6197   Anisotropy =   144.6684

     17  N    Isotropic =   -47.7327   Anisotropy =   519.1241

     18  O    Isotropic =   109.7419   Anisotropy =    70.1490

     19  O    Isotropic =   122.2568   Anisotropy =    70.1446

     20  H    Isotropic =    24.1839   Anisotropy =     8.5453

     21  H    Isotropic =    23.8070   Anisotropy =     9.3414

     22  H    Isotropic =    24.8971   Anisotropy =     5.5347

     23  H    Isotropic =    24.3996   Anisotropy =     5.7701

     24  H    Isotropic =    24.7084   Anisotropy =     4.4831

     25  H    Isotropic =    24.6396   Anisotropy =     4.6680

     26  H    Isotropic =    24.7274   Anisotropy =     5.5859

     27  H    Isotropic =    23.0077   Anisotropy =     8.2921

 The electronic state is 1-A.
 Alpha  occ. eigenvalues --  -89.23088 -24.78131 -19.28167 -19.21478 -19.21279
 Alpha  occ. eigenvalues --  -14.41034 -10.30519 -10.30344 -10.28973 -10.28588
 Alpha  occ. eigenvalues --  -10.27517 -10.26621 -10.26504 -10.24394 -10.24215
 Alpha  occ. eigenvalues --  -10.23808 -10.23723 -10.23624 -10.23131  -8.20990
 Alpha  occ. eigenvalues --   -6.15927  -6.15590  -6.15472  -1.27255  -1.15923
 Alpha  occ. eigenvalues --   -1.13421  -1.05319  -1.01065  -0.89546  -0.87618
 Alpha  occ. eigenvalues --   -0.84719  -0.82890  -0.78524  -0.77033  -0.72524
 Alpha  occ. eigenvalues --   -0.69363  -0.66611  -0.64869  -0.63324  -0.61392
 Alpha  occ. eigenvalues --   -0.59380  -0.56092  -0.54952  -0.53523  -0.52900
 Alpha  occ. eigenvalues --   -0.51403  -0.50396  -0.49850  -0.49409  -0.47764
 Alpha  occ. eigenvalues --   -0.46812  -0.45879  -0.45391  -0.44511  -0.44349
 Alpha  occ. eigenvalues --   -0.43935  -0.42832  -0.41220  -0.39143  -0.39048
 Alpha  occ. eigenvalues --   -0.38303  -0.36701  -0.35780  -0.35342  -0.34306
 Alpha  occ. eigenvalues --   -0.33182  -0.32637  -0.30870  -0.30299  -0.26463
 Alpha  occ. eigenvalues --   -0.24089
 Alpha virt. eigenvalues --   -0.08828  -0.05309  -0.01971  -0.00163   0.02902
 Alpha virt. eigenvalues --    0.04659   0.07739   0.08738   0.09617   0.10320
 Alpha virt. eigenvalues --    0.11717   0.12471   0.13351   0.14616   0.15713

 Mulliken charges:
               1
     1  F   -0.296965
     2  S    1.261744
     3  C   -0.027049
     4  C   -0.169214
     5  C   -0.140343
     6  C   -0.004583
     7  C    0.288717
     8  C   -0.231781
     9  C    0.054167
    10  C   -0.214774
    11  C   -0.175973
    12  C   -0.182020
    13  C   -0.212688
    14  C    0.350310
    15  O   -0.540336
    16  C    0.022753
    17  N   -0.419565
    18  O   -0.454964
    19  O   -0.486535
    20  H    0.236846
    21  H    0.218656
    22  H    0.199381
    23  H    0.180530
    24  H    0.176026
    25  H    0.178977
    26  H    0.190835
    27  H    0.197851
 Sum of Mulliken charges =  -0.00000

 Dipole moment (field-independent basis, Debye):
    X=              7.5762    Y=             -0.6792    Z=             -0.6229  Tot=              7.6320
 Quadrupole moment (field-independent basis, Debye-Ang):
   XX=           -127.0725   YY=           -104.5934   ZZ=           -117.4193
   XY=              3.6722   XZ=              3.5899   YZ=             -1.1685

 Summary of Natural Population Analysis:

                                       Natural Population
                Natural  -----------------------------------------------
    Atom  No    Charge         Core      Valence    Rydberg      Total
 -----------------------------------------------------------------------
      F    1   -0.49682      1.99997     7.48707    0.00979     9.49682
      S    2    2.42282      9.99874     3.37263    0.20581    13.57718
      C    3   -0.10525      1.99879     4.07042    0.03605     6.10525
      C    4   -0.24699      1.99897     4.23305    0.01497     6.24699
      C    5   -0.18278      1.99907     4.16940    0.01430     6.18278
      C    6   -0.11649      1.99899     4.10385    0.01365     6.11649
      C    7    0.29754      1.99888     3.67894    0.02464     5.70246
      C    8   -0.27084      1.99893     4.26099    0.01093     6.27084
      C    9   -0.12373      1.99901     4.10977    0.01495     6.12373
      C   10   -0.21771      1.99903     4.20557    0.01311     6.21771
      C   11   -0.25421      1.99912     4.24144    0.01365     6.25421
      C   12   -0.23276      1.99914     4.21995    0.01367     6.23276
      C   13   -0.28105      1.99899     4.26828    0.01378     6.28105
      C   14    0.32401      1.99877     3.65456    0.02266     5.67599
      O   15   -0.45537      1.99971     6.44460    0.01106     8.45537
      C   16    0.05703      1.99916     3.92213    0.02169     5.94297
      N   17   -0.41621      1.99936     5.39137    0.02548     7.41621
      O   18   -0.87775      1.99988     6.85342    0.02444     8.87775
      O   19   -0.90998      1.99988     6.88642    0.02367     8.90998
      H   20    0.28778      0.00000     0.71117    0.00105     0.71222
      H   21    0.27475      0.00000     0.72420    0.00105     0.72525
      H   22    0.26248      0.00000     0.73703    0.00049     0.73752
      H   23    0.25294      0.00000     0.74622    0.00084     0.74706
      H   24    0.25284      0.00000     0.74646    0.00070     0.74716
      H   25    0.25346      0.00000     0.74587    0.00067     0.74654
      H   26    0.26199      0.00000     0.73706    0.00095     0.73801
      H   27    0.24030      0.00000     0.75867    0.00103     0.75970
 =======================================================================
   * Total *   -0.00000     45.98439    95.48054    0.53507   142.00000

 Normal termination of Gaussian 16 at Fri Oct  4 16:25:22 2024.
