 Gaussian 16, Revision C.01,

 -------------------------------
 #p apfd/6-31G* opt freq=noraman
 -------------------------------

 -------
 ID-4002
 -------
 Symbolic Z-matrix:
 Charge =  0 Multiplicity = 1

 SCF Done:  E(RAPFD) =  -1600.70948702     A.U. after   16 cycles
 SCF Done:  E(RAPFD) =  -1600.71935726     A.U. after   13 cycles
 SCF Done:  E(RAPFD) =  -1600.72115723     A.U. after   13 cycles
 SCF Done:  E(RAPFD) =  -1600.72200186     A.U. after   13 cycles
 SCF Done:  E(RAPFD) =  -1600.72266204     A.U. after   15 cycles
 SCF Done:  E(RAPFD) =  -1600.72291325     A.U. after   12 cycles
 SCF Done:  E(RAPFD) =  -1600.72295793     A.U. after   11 cycles
 SCF Done:  E(RAPFD) =  -1600.72296352     A.U. after   10 cycles
 SCF Done:  E(RAPFD) =  -1600.72296427     A.U. after    8 cycles
 SCF Done:  E(RAPFD) =  -1600.72296434     A.U. after    7 cycles
 Optimization completed.
    -- Stationary point found.
 Normal termination of Gaussian 16 at Fri Oct  4 16:14:35 2024.

 -------------------------------------------------------------------
 #P Geom=AllCheck Guess=TCheck SCRF=Check GenChk RAPFD/6-31G(d) Freq
 -------------------------------------------------------------------

 Structure from the checkpoint file:  "ID-4002.chk"
 -------
 ID-4002
 -------
 Charge =  0 Multiplicity = 1

 SCF Done:  E(RAPFD) =  -1600.72296434     A.U. after    1 cycles

  Exact polarizability:     346.905      -4.158     165.807       0.517       2.199      78.928
 Approx polarizability:     469.637     -16.182     321.348       0.995       8.695     134.034

                      1                      2                      3
                      A                      A                      A
 Frequencies --     24.9622                33.9949                54.0768
 Red. masses --     10.1266                 7.7909                 5.0601
 Frc consts  --      0.0037                 0.0053                 0.0087
 IR Inten    --      0.2607                 0.6577                 0.8865

                      4                      5                      6
                      A                      A                      A
 Frequencies --     60.2860                96.7664               153.4164
 Red. masses --      7.4491                 8.1574                 9.6169
 Frc consts  --      0.0160                 0.0450                 0.1334
 IR Inten    --      0.4839                 1.6088                 1.0219

                      7                      8                      9
                      A                      A                      A
 Frequencies --    180.1044               192.1734               199.2774
 Red. masses --     11.9350                 6.5953                 6.0162
 Frc consts  --      0.2281                 0.1435                 0.1408
 IR Inten    --      0.8881                 0.1459                 0.2994

                     10                     11                     12
                      A                      A                      A
 Frequencies --    251.9040               305.1292               347.7862
 Red. masses --      7.0927                 7.7511                 6.7691
 Frc consts  --      0.2652                 0.4252                 0.4824
 IR Inten    --      1.1343                 1.1010                 3.2912

                     13                     14                     15
                      A                      A                      A
 Frequencies --    367.8555               378.2108               404.4655
 Red. masses --      6.4482                 8.5345                 6.7513
 Frc consts  --      0.5141                 0.7193                 0.6507
 IR Inten    --      0.7689                10.5857                 2.6049

                     16                     17                     18
                      A                      A                      A
 Frequencies --    412.8564               436.4152               463.9139
 Red. masses --      3.7351                 3.6558                 7.3187
 Frc consts  --      0.3751                 0.4102                 0.9280
 IR Inten    --      0.9786                 6.9820                 1.2010

                     19                     20                     21
                      A                      A                      A
 Frequencies --    487.3980               501.0515               518.4232
 Red. masses --     12.0348                 8.5599                 5.6339
 Frc consts  --      1.6844                 1.2661                 0.8921
 IR Inten    --     11.8971                 0.7538                17.3294

                     22                     23                     24
                      A                      A                      A
 Frequencies --    554.9718               573.2282               593.3725
 Red. masses --      3.7707                 8.1558                 3.4837
 Frc consts  --      0.6842                 1.5790                 0.7227
 IR Inten    --      3.9523                45.0649                 2.5789

                     25                     26                     27
                      A                      A                      A
 Frequencies --    617.2738               627.8594               698.3372
 Red. masses --      9.5918                 8.2610                 6.7621
 Frc consts  --      2.1533                 1.9187                 1.9430
 IR Inten    --    140.0824                14.6217                 4.8911

                     28                     29                     30
                      A                      A                      A
 Frequencies --    726.9519               733.2641               753.0811
 Red. masses --      6.9643                 3.6962                 7.0723
 Frc consts  --      2.1684                 1.1709                 2.3631
 IR Inten    --      9.3252                 8.6242                20.3859

                     31                     32                     33
                      A                      A                      A
 Frequencies --    759.5102               765.0560               824.5169
 Red. masses --      2.5509                 1.7641                17.1346
 Frc consts  --      0.8670                 0.6084                 6.8632
 IR Inten    --     33.9177                20.1680               286.7531

                     34                     35                     36
                      A                      A                      A
 Frequencies --    850.6199               870.0695               877.0088
 Red. masses --      1.3346                 1.6577                 2.4950
 Frc consts  --      0.5690                 0.7394                 1.1307
 IR Inten    --     26.6505                 8.9534                 9.7842

                     37                     38                     39
                      A                      A                      A
 Frequencies --    883.6245               952.2455               956.1997
 Red. masses --      1.8316                 1.3555                 1.6093
 Frc consts  --      0.8426                 0.7242                 0.8669
 IR Inten    --      2.3009                 2.2685                 3.7528

                     40                     41                     42
                      A                      A                      A
 Frequencies --    965.5966               993.2309              1000.2475
 Red. masses --      3.8666                 1.2772                 1.3348
 Frc consts  --      2.1241                 0.7424                 0.7868
 IR Inten    --      4.1695                 0.0142                 0.1390

                     43                     44                     45
                      A                      A                      A
 Frequencies --   1046.3336              1060.8074              1094.9917
 Red. masses --      3.2425                 2.2674                 4.4264
 Frc consts  --      2.0916                 1.5033                 3.1270
 IR Inten    --      7.9253                 1.6901                 3.0279

                     46                     47                     48
                      A                      A                      A
 Frequencies --   1135.9117              1174.2956              1180.8891
 Red. masses --      2.9457                 1.4850                 1.4588
 Frc consts  --      2.2394                 1.2065                 1.1986
 IR Inten    --     29.9627                 0.3177                 7.3059

                     49                     50                     51
                      A                      A                      A
 Frequencies --   1205.5765              1220.7884              1232.5453
 Red. masses --      1.1896                 4.4867                 1.5649
 Frc consts  --      1.0187                 3.9397                 1.4007
 IR Inten    --     31.8046               277.9343                 9.3590

                     52                     53                     54
                      A                      A                      A
 Frequencies --   1282.7183              1293.6665              1346.8097
 Red. masses --      2.8262                 2.2046                 1.4903
 Frc consts  --      2.7397                 2.1738                 1.5927
 IR Inten    --     15.8136                 3.5449                 3.5229

                     55                     56                     57
                      A                      A                      A
 Frequencies --   1354.3113              1372.6077              1402.6001
 Red. masses --      3.4162                 4.5855                 4.9787
 Frc consts  --      3.6917                 5.0901                 5.7708
 IR Inten    --      1.8003                 4.6799                 7.2380

                     58                     59                     60
                      A                      A                      A
 Frequencies --   1424.6239              1432.5182              1486.0870
 Red. masses --      4.6687                 6.4668                 2.4366
 Frc consts  --      5.5828                 7.8188                 3.1704
 IR Inten    --     61.6870               151.4269                13.1142

                     61                     62                     63
                      A                      A                      A
 Frequencies --   1514.1554              1522.9229              1599.8021
 Red. masses --      2.5520                 2.8473                 5.8777
 Frc consts  --      3.4472                 3.8908                 8.8633
 IR Inten    --      2.4845                20.6886                49.0612

                     64                     65                     66
                      A                      A                      A
 Frequencies --   1630.3715              1641.4890              1650.2806
 Red. masses --      6.8699                 6.6257                 5.9949
 Frc consts  --     10.7590                10.5187                 9.6194
 IR Inten    --      5.9321                12.9744                36.7588

                     67                     68                     69
                      A                      A                      A
 Frequencies --   1671.9895              3206.5793              3206.6895
 Red. masses --      6.0839                 1.0873                 1.0895
 Frc consts  --     10.0207                 6.5869                 6.6008
 IR Inten    --      0.9850                 1.8190                10.8140

                     70                     71                     72
                      A                      A                      A
 Frequencies --   3214.9623              3225.8499              3230.7695
 Red. masses --      1.0892                 1.0941                 1.0907
 Frc consts  --      6.6330                 6.7082                 6.7076
 IR Inten    --      2.6569                13.9838                 3.0518

                     73                     74                     75
                      A                      A                      A
 Frequencies --   3234.7077              3241.1313              3261.3806
 Red. masses --      1.0978                 1.0928                 1.0943
 Frc consts  --      6.7680                 6.7636                 6.8577
 IR Inten    --     21.6733                 3.2359                 1.6339

 - Thermochemistry -
 -------------------
 Temperature   298.150 Kelvin.  Pressure   1.00000 Atm.
 Atom     1 has atomic number  9 and mass  18.99840

 Molecular mass:   292.99805 amu.
 Principal axes and moments of inertia in atomic units:
                           1         2         3
     Eigenvalues --  1322.59093********************
           X            1.00000  -0.00001  -0.00027
           Y            0.00001   0.99996   0.00901
           Z            0.00027  -0.00901   0.99996
 This molecule is an asymmetric top.
 Rotational symmetry number  1.
 Warning -- assumption of classical behavior for rotation
           may cause significant error
 Rotational temperatures (Kelvin)      0.06549     0.00548     0.00520
 Rotational constants (GHZ):           1.36455     0.11420     0.10834
 Zero-point vibrational energy     491951.7 (Joules/Mol)
                                  117.57927 (Kcal/Mol)
 Warning -- explicit consideration of  25 degrees of freedom as
           vibrations may cause significant error
 Vibrational temperatures:     35.91    48.91    77.80    86.74   139.23
          (Kelvin)            220.73   259.13   276.49   286.72   362.43
                              439.01   500.39   529.26   544.16   581.94
                              594.01   627.90   667.47   701.26   720.90
                              745.90   798.48   824.75   853.73   888.12
                              903.35  1004.75  1045.92  1055.00  1083.52
                             1092.77  1100.74  1186.30  1223.85  1251.84
                             1261.82  1271.34  1370.07  1375.76  1389.28
                             1429.04  1439.13  1505.44  1526.27  1575.45
                             1634.32  1689.55  1699.04  1734.56  1756.44
                             1773.36  1845.55  1861.30  1937.76  1948.55
                             1974.88  2018.03  2049.72  2061.07  2138.15
                             2178.53  2191.15  2301.76  2345.74  2361.74
                             2374.39  2405.62  4613.55  4613.71  4625.61
                             4641.28  4648.36  4654.02  4663.27  4692.40

 Zero-point correction=                           0.187374 (Hartree/Particle)
 Thermal correction to Energy=                    0.202659
 Thermal correction to Enthalpy=                  0.203603
 Thermal correction to Gibbs Free Energy=         0.142490
 Sum of electronic and zero-point Energies=          -1600.535590
 Sum of electronic and thermal Energies=             -1600.520305
 Sum of electronic and thermal Enthalpies=           -1600.519361
 Sum of electronic and thermal Free Energies=        -1600.580474

                     E (Thermal)             CV                S
                      KCal/Mol        Cal/Mol-Kelvin    Cal/Mol-Kelvin
 Total                  127.170             58.910            128.623
 Electronic               0.000              0.000              0.000
 Translational            0.889              2.981             42.922
 Rotational               0.889              2.981             34.209
 Vibrational            125.393             52.948             51.492
 Vibration     1          0.593              1.985              6.194
 Vibration     2          0.594              1.983              5.581
 Vibration     3          0.596              1.976              4.662
 Vibration     4          0.597              1.973              4.448
 Vibration     5          0.603              1.951              3.518
 Vibration     6          0.619              1.899              2.629
 Vibration     7          0.629              1.867              2.327
 Vibration     8          0.634              1.851              2.207
 Vibration     9          0.637              1.841              2.140
 Vibration    10          0.664              1.760              1.717
 Vibration    11          0.696              1.664              1.389
 Vibration    12          0.725              1.580              1.176
 Vibration    13          0.740              1.538              1.089
 Vibration    14          0.748              1.517              1.046
 Vibration    15          0.770              1.460              0.946
 Vibration    16          0.777              1.442              0.917
 Vibration    17          0.797              1.391              0.838
 Vibration    18          0.821              1.330              0.755
 Vibration    19          0.843              1.278              0.690
 Vibration    20          0.856              1.248              0.655
 Vibration    21          0.873              1.209              0.614
 Vibration    22          0.910              1.129              0.534
 Vibration    23          0.929              1.089              0.498
 Vibration    24          0.951              1.046              0.461
 Vibration    25          0.977              0.995              0.421

 Optimization completed.
    -- Stationary point found.
 Normal termination of Gaussian 16 at Fri Oct  4 16:20:44 2024.
 Gaussian 16:  ES64L-G16RevC.01  3-Jul-2019

 -------------------------------------------------------
 #p apfd/6-31G* volume NMR pop=NPA geom=check guess=read
 -------------------------------------------------------

 -------
 ID-4002
 -------
 Structure from the checkpoint file:  "ID-4002.chk"
 Charge =  0 Multiplicity = 1

                         Standard orientation:
 ---------------------------------------------------------------------
 Center     Atomic      Atomic             Coordinates (Angstroms)
 Number     Number       Type             X           Y           Z
 ---------------------------------------------------------------------
      1          9           0        4.875486   -0.955039    1.064565
      2         16           0        4.596214    0.084563   -0.126371
      3          6           0        2.808330    0.116221   -0.046243
      4          6           0        2.181704    1.288241    0.360320
      5          6           0        0.793487    1.274894    0.393036
      6          6           0        0.100853    0.118206    0.012169
      7          6           0       -1.357286    0.076890    0.012162
      8          6           0       -2.209465    1.131260   -0.155084
      9          6           0       -3.588989    0.763775   -0.115156
     10          6           0       -4.725711    1.578447   -0.256183
     11          6           0       -5.984373    1.007921   -0.183251
     12          6           0       -6.135614   -0.374113    0.027726
     13          6           0       -5.030980   -1.202040    0.166456
     14          6           0       -3.760067   -0.624989    0.091395
     15         16           0       -2.223067   -1.433975    0.234331
     16          6           0        0.870353   -0.995835   -0.374978
     17          7           0        2.195843   -1.001133   -0.404308
     18          8           0        5.104914    1.362126    0.321873
     19          8           0        5.050496   -0.549735   -1.337770
     20          1           0        2.761401    2.157680    0.650644
     21          1           0        0.246126    2.149345    0.733066
     22          1           0       -1.870425    2.145904   -0.339176
     23          1           0       -4.607274    2.646797   -0.419909
     24          1           0       -6.867598    1.632181   -0.289980
     25          1           0       -7.132987   -0.802769    0.081687
     26          1           0       -5.150833   -2.269917    0.327109
     27          1           0        0.384232   -1.917742   -0.688775
 ---------------------------------------------------------------------

 SCF Done:  E(RAPFD) =  -1600.72296434     A.U. after    1 cycles

      1  F    Isotropic =   122.2013   Anisotropy =   333.8725

      2  S    Isotropic =   234.9696   Anisotropy =   327.0281

      3  C    Isotropic =    44.4667   Anisotropy =   101.8746

      4  C    Isotropic =    74.6504   Anisotropy =   166.0124

      5  C    Isotropic =    65.1975   Anisotropy =   168.9855

      6  C    Isotropic =    63.9425   Anisotropy =   170.3495

      7  C    Isotropic =    56.2729   Anisotropy =   109.5483

      8  C    Isotropic =    74.4406   Anisotropy =   109.0593

      9  C    Isotropic =    61.5851   Anisotropy =   150.9304

     10  C    Isotropic =    74.0727   Anisotropy =   156.4204

     11  C    Isotropic =    73.6298   Anisotropy =   165.5776

     12  C    Isotropic =    73.1356   Anisotropy =   165.2727

     13  C    Isotropic =    76.0612   Anisotropy =   155.9468

     14  C    Isotropic =    54.7139   Anisotropy =   140.7663

     15  S    Isotropic =   381.4867   Anisotropy =   160.1314

     16  C    Isotropic =    50.8896   Anisotropy =   140.2719

     17  N    Isotropic =   -50.5580   Anisotropy =   517.2455

     18  O    Isotropic =   121.9421   Anisotropy =    70.0848

     19  O    Isotropic =   109.2773   Anisotropy =    70.2929

     20  H    Isotropic =    24.1819   Anisotropy =     8.4741

     21  H    Isotropic =    24.0652   Anisotropy =     8.9958

     22  H    Isotropic =    24.6694   Anisotropy =     6.9287

     23  H    Isotropic =    24.2855   Anisotropy =     6.6489

     24  H    Isotropic =    24.6480   Anisotropy =     4.5318

     25  H    Isotropic =    24.6321   Anisotropy =     4.5704

     26  H    Isotropic =    24.3501   Anisotropy =     7.3394

     27  H    Isotropic =    23.2410   Anisotropy =    10.1598

 The electronic state is 1-A.
 Alpha  occ. eigenvalues --  -89.23183 -89.01124 -24.78235 -19.21578 -19.21376
 Alpha  occ. eigenvalues --  -14.41076 -10.30667 -10.28420 -10.27971 -10.27741
 Alpha  occ. eigenvalues --  -10.26950 -10.26934 -10.26668 -10.24623 -10.24571
 Alpha  occ. eigenvalues --  -10.24091 -10.23726 -10.23585 -10.23271  -8.21087
 Alpha  occ. eigenvalues --   -8.02734  -6.16024  -6.15686  -6.15569  -5.97441
 Alpha  occ. eigenvalues --   -5.97073  -5.96629  -1.27367  -1.13520  -1.05419
 Alpha  occ. eigenvalues --   -1.01122  -0.93575  -0.88210  -0.85543  -0.83413
 Alpha  occ. eigenvalues --   -0.80585  -0.76879  -0.74792  -0.72419  -0.68763
 Alpha  occ. eigenvalues --   -0.66402  -0.63628  -0.61650  -0.59961  -0.59427
 Alpha  occ. eigenvalues --   -0.55012  -0.54023  -0.53358  -0.52205  -0.50708
 Alpha  occ. eigenvalues --   -0.49450  -0.48977  -0.47856  -0.46330  -0.45724
 Alpha  occ. eigenvalues --   -0.44985  -0.44725  -0.44456  -0.43665  -0.43015
 Alpha  occ. eigenvalues --   -0.41659  -0.39312  -0.38959  -0.38041  -0.37079
 Alpha  occ. eigenvalues --   -0.36227  -0.35628  -0.34983  -0.33305  -0.33190
 Alpha  occ. eigenvalues --   -0.31632  -0.30792  -0.30276  -0.25690  -0.24185
 Alpha virt. eigenvalues --   -0.08762  -0.05553  -0.02595  -0.01693   0.00652
 Alpha virt. eigenvalues --    0.02638   0.04316   0.06189   0.08564   0.09573
 Alpha virt. eigenvalues --    0.10459   0.11749   0.12066   0.12714   0.14115

 Mulliken charges:
               1
     1  F   -0.296141
     2  S    1.262444
     3  C   -0.024103
     4  C   -0.174185
     5  C   -0.140450
     6  C    0.099748
     7  C   -0.270854
     8  C   -0.163870
     9  C    0.107617
    10  C   -0.186635
    11  C   -0.183845
    12  C   -0.155627
    13  C   -0.201408
    14  C   -0.172166
    15  S    0.308488
    16  C   -0.013169
    17  N   -0.412546
    18  O   -0.486890
    19  O   -0.453865
    20  H    0.236660
    21  H    0.200886
    22  H    0.187748
    23  H    0.176537
    24  H    0.177342
    25  H    0.178801
    26  H    0.186799
    27  H    0.212684
 Sum of Mulliken charges =  -0.00000

 Dipole moment (field-independent basis, Debye):
    X=             -7.5372    Y=              2.0704    Z=              1.0199  Tot=              7.8827
 Quadrupole moment (field-independent basis, Debye-Ang):
   XX=           -134.3878   YY=           -111.8390   ZZ=           -126.0541
   XY=              1.3618   XZ=              5.3566   YZ=             -1.4892

 Summary of Natural Population Analysis:

                                       Natural Population
                Natural  -----------------------------------------------
    Atom  No    Charge         Core      Valence    Rydberg      Total
 -----------------------------------------------------------------------
      F    1   -0.49616      1.99997     7.48639    0.00981     9.49616
      S    2    2.42267      9.99875     3.37279    0.20579    13.57733
      C    3   -0.10109      1.99879     4.06613    0.03617     6.10109
      C    4   -0.24887      1.99896     4.23487    0.01503     6.24887
      C    5   -0.17944      1.99905     4.16689    0.01350     6.17944
      C    6   -0.08985      1.99898     4.07546    0.01541     6.08985
      C    7   -0.22233      1.99889     4.20416    0.01929     6.22233
      C    8   -0.22881      1.99887     4.21626    0.01368     6.22881
      C    9   -0.09254      1.99897     4.07776    0.01581     6.09254
      C   10   -0.21216      1.99903     4.20028    0.01285     6.21216
      C   11   -0.24656      1.99911     4.23349    0.01396     6.24656
      C   12   -0.23201      1.99912     4.21917    0.01372     6.23201
      C   13   -0.24413      1.99897     4.22941    0.01575     6.24413
      C   14   -0.20655      1.99882     4.19012    0.01761     6.20655
      S   15    0.45911      9.99904     5.50325    0.03859    15.54089
      C   16    0.04615      1.99914     3.93236    0.02235     5.95385
      N   17   -0.41216      1.99936     5.38733    0.02548     7.41216
      O   18   -0.91027      1.99988     6.88673    0.02366     8.91027
      O   19   -0.87674      1.99988     6.85237    0.02449     8.87674
      H   20    0.28793      0.00000     0.71100    0.00107     0.71207
      H   21    0.26231      0.00000     0.73678    0.00091     0.73769
      H   22    0.25810      0.00000     0.74119    0.00070     0.74190
      H   23    0.25137      0.00000     0.74774    0.00090     0.74863
      H   24    0.25267      0.00000     0.74661    0.00073     0.74733
      H   25    0.25343      0.00000     0.74587    0.00069     0.74657
      H   26    0.25786      0.00000     0.74124    0.00090     0.74214
      H   27    0.24809      0.00000     0.75073    0.00118     0.75191
 =======================================================================
   * Total *   -0.00000     53.98358    95.45640    0.56002   150.00000

 Normal termination of Gaussian 16 at Fri Oct  4 16:21:29 2024.
