 Gaussian 16, Revision C.01,

 -------------------------------
 #p apfd/6-31G* opt freq=noraman
 -------------------------------

 -------
 ID-4003
 -------
 Symbolic Z-matrix:
 Charge =  0 Multiplicity = 1

 SCF Done:  E(RAPFD) =  -1260.32949014     A.U. after   15 cycles
 SCF Done:  E(RAPFD) =  -1260.33873920     A.U. after   12 cycles
 SCF Done:  E(RAPFD) =  -1260.33980653     A.U. after   12 cycles
 SCF Done:  E(RAPFD) =  -1260.33992561     A.U. after   11 cycles
 SCF Done:  E(RAPFD) =  -1260.33997217     A.U. after   11 cycles
 SCF Done:  E(RAPFD) =  -1260.34004879     A.U. after   11 cycles
 SCF Done:  E(RAPFD) =  -1260.34006630     A.U. after   14 cycles
 SCF Done:  E(RAPFD) =  -1260.34016677     A.U. after   12 cycles
 SCF Done:  E(RAPFD) =  -1260.34047821     A.U. after   12 cycles
 SCF Done:  E(RAPFD) =  -1260.29628886     A.U. after   13 cycles
 SCF Done:  E(RAPFD) =  -1260.34321748     A.U. after   12 cycles
 SCF Done:  E(RAPFD) =  -1260.34219474     A.U. after   12 cycles
 SCF Done:  E(RAPFD) =  -1260.34442312     A.U. after    8 cycles
 SCF Done:  E(RAPFD) =  -1260.34442498     A.U. after    9 cycles
 SCF Done:  E(RAPFD) =  -1260.34442539     A.U. after    8 cycles
 SCF Done:  E(RAPFD) =  -1260.34442549     A.U. after    7 cycles
 SCF Done:  E(RAPFD) =  -1260.34442552     A.U. after    7 cycles
 SCF Done:  E(RAPFD) =  -1260.34442554     A.U. after    6 cycles
 Optimization completed.
    -- Stationary point found.
 Normal termination of Gaussian 16 at Fri Oct  4 16:49:31 2024.

 -------------------------------------------------------------------
 #P Geom=AllCheck Guess=TCheck SCRF=Check GenChk RAPFD/6-31G(d) Freq
 -------------------------------------------------------------------

 Structure from the checkpoint file:  "ID-4003.chk"
 -------
 ID-4003
 -------
 Charge =  0 Multiplicity = 1

 SCF Done:  E(RAPFD) =  -1260.34442554     A.U. after    1 cycles

  Exact polarizability:     277.486      -2.225     172.289      -7.219       5.867      91.811
 Approx polarizability:     356.930      -3.149     298.431     -14.019      20.747     149.437

                      1                      2                      3
                      A                      A                      A
 Frequencies --     26.2635                36.2087                52.2683
 Red. masses --      9.1451                 5.4627                 3.3500
 Frc consts  --      0.0037                 0.0042                 0.0054
 IR Inten    --      0.3427                 0.5056                 0.2184

                      4                      5                      6
                      A                      A                      A
 Frequencies --     59.4681                76.8603                82.6853
 Red. masses --      3.8842                 4.6773                 3.1737
 Frc consts  --      0.0081                 0.0163                 0.0128
 IR Inten    --      3.3650                 1.6904                 4.3873

                      7                      8                      9
                      A                      A                      A
 Frequencies --    117.2804               168.6944               168.9021
 Red. masses --      5.4754                 1.6508                 7.2059
 Frc consts  --      0.0444                 0.0277                 0.1211
 IR Inten    --      0.7110                 0.6405                 0.8757

                     10                     11                     12
                      A                      A                      A
 Frequencies --    200.3989               205.3166               252.2137
 Red. masses --      8.5244                 2.6882                 2.0924
 Frc consts  --      0.2017                 0.0668                 0.0784
 IR Inten    --      0.3075                 0.0317                 0.3995

                     13                     14                     15
                      A                      A                      A
 Frequencies --    278.3684               298.1015               336.4556
 Red. masses --      3.0957                 2.0613                 4.6473
 Frc consts  --      0.1413                 0.1079                 0.3100
 IR Inten    --      0.7517                 2.3027                 0.3065

                     16                     17                     18
                      A                      A                      A
 Frequencies --    363.1751               377.4083               406.6617
 Red. masses --      5.3075                 4.9044                 5.8529
 Frc consts  --      0.4125                 0.4116                 0.5703
 IR Inten    --      4.0146                 1.3099                10.0046

                     19                     20                     21
                      A                      A                      A
 Frequencies --    421.3683               429.1911               461.6206
 Red. masses --      3.9546                 3.6218                 4.0193
 Frc consts  --      0.4137                 0.3931                 0.5046
 IR Inten    --      4.4121                 0.3270                 1.8652

                     22                     23                     24
                      A                      A                      A
 Frequencies --    479.2685               488.7792               516.8208
 Red. masses --      6.9252                 7.3042                 4.5354
 Frc consts  --      0.9372                 1.0281                 0.7137
 IR Inten    --     15.5183                13.5619                 9.3837

                     25                     26                     27
                      A                      A                      A
 Frequencies --    561.4827               570.0388               599.8032
 Red. masses --      3.9213                 3.3844                12.6980
 Frc consts  --      0.7284                 0.6479                 2.6915
 IR Inten    --      1.8520                 3.9628               125.7102

                     28                     29                     30
                      A                      A                      A
 Frequencies --    622.3816               643.4622               685.1312
 Red. masses --      6.3510                 4.8779                 7.4794
 Frc consts  --      1.4495                 1.1899                 2.0686
 IR Inten    --      6.2260                 3.5596                41.7672

                     31                     32                     33
                      A                      A                      A
 Frequencies --    714.7261               755.3884               769.3324
 Red. masses --      2.0850                 6.4701                 4.8782
 Frc consts  --      0.6275                 2.1752                 1.7011
 IR Inten    --     11.2914                 9.7086                10.2165

                     34                     35                     36
                      A                      A                      A
 Frequencies --    793.2568               820.3872               855.4373
 Red. masses --      1.5523                13.1652                 5.2207
 Frc consts  --      0.5755                 5.2206                 2.2509
 IR Inten    --     53.5647               251.6551                14.6711

                     37                     38                     39
                      A                      A                      A
 Frequencies --    864.7274               870.0220               888.2104
 Red. masses --      1.4922                 1.5101                 1.4538
 Frc consts  --      0.6574                 0.6735                 0.6758
 IR Inten    --     36.8056                 3.2784                 4.2827

                     40                     41                     42
                      A                      A                      A
 Frequencies --    968.8474               973.2916               996.9640
 Red. masses --      1.4234                 1.2720                 3.3137
 Frc consts  --      0.7872                 0.7099                 1.9405
 IR Inten    --      1.4630                 0.8162                13.3271

                     43                     44                     45
                      A                      A                      A
 Frequencies --   1004.1680              1007.2721              1044.4209
 Red. masses --      1.4359                 4.4518                 3.3776
 Frc consts  --      0.8531                 2.6612                 2.1707
 IR Inten    --      1.9408                19.1602                13.1807

                     46                     47                     48
                      A                      A                      A
 Frequencies --   1091.2856              1102.8050              1138.3168
 Red. masses --      2.4793                 1.5447                 2.5634
 Frc consts  --      1.7396                 1.1069                 1.9570
 IR Inten    --      1.1530                26.3572                21.2898

                     49                     50                     51
                      A                      A                      A
 Frequencies --   1149.7353              1150.0750              1156.3932
 Red. masses --      1.6562                 1.3241                 1.2382
 Frc consts  --      1.2899                 1.0319                 0.9756
 IR Inten    --      1.6100                 8.9510                 0.1155

                     52                     53                     54
                      A                      A                      A
 Frequencies --   1180.2325              1214.1297              1222.7416
 Red. masses --      1.4574                 1.4194                10.3851
 Frc consts  --      1.1961                 1.2328                 9.1481
 IR Inten    --     13.4395                 1.8324               235.5742

                     55                     56                     57
                      A                      A                      A
 Frequencies --   1240.7475              1319.9743              1325.2687
 Red. masses --      1.2104                 2.2121                 3.4962
 Frc consts  --      1.0979                 2.2708                 3.6179
 IR Inten    --     16.2741                41.0611                15.4934

                     58                     59                     60
                      A                      A                      A
 Frequencies --   1340.5857              1348.8118              1377.3885
 Red. masses --      1.3782                 3.3227                 2.4612
 Frc consts  --      1.4593                 3.5616                 2.7511
 IR Inten    --      0.4505                 3.0241                 7.5105

                     61                     62                     63
                      A                      A                      A
 Frequencies --   1396.1031              1415.7603              1426.3263
 Red. masses --      3.2716                 3.1585                11.2387
 Frc consts  --      3.7571                 3.7300                13.4712
 IR Inten    --     10.3250                66.6029                96.9219

                     64                     65                     66
                      A                      A                      A
 Frequencies --   1434.4652              1470.2780              1496.9584
 Red. masses --      4.2344                 1.2122                 2.1779
 Frc consts  --      5.1336                 1.5439                 2.8755
 IR Inten    --    184.0646                 1.6391                 7.3002

                     67                     68                     69
                      A                      A                      A
 Frequencies --   1509.4258              1512.3806              1521.2786
 Red. masses --      1.4575                 1.0441                 1.0880
 Frc consts  --      1.9565                 1.4071                 1.4835
 IR Inten    --     48.6421                 2.3440                 9.5876

                     70                     71                     72
                      A                      A                      A
 Frequencies --   1529.8441              1548.7786              1569.2749
 Red. masses --      2.0766                 1.1986                 1.1165
 Frc consts  --      2.8635                 1.6939                 1.6199
 IR Inten    --     40.1892                 5.0394               110.4038

                     73                     74                     75
                      A                      A                      A
 Frequencies --   1570.6767              1634.1129              1651.2208
 Red. masses --      2.4736                 6.3725                 5.8074
 Frc consts  --      3.5954                10.0260                 9.3291
 IR Inten    --     76.9428                14.0001                28.6471

                     76                     77                     78
                      A                      A                      A
 Frequencies --   1654.6414              1685.7577              3022.2791
 Red. masses --      6.1113                 5.4441                 1.0428
 Frc consts  --      9.8581                 9.1152                 5.6122
 IR Inten    --     22.9520               212.8540                77.4039

                     79                     80                     81
                      A                      A                      A
 Frequencies --   3030.9200              3087.7536              3089.2226
 Red. masses --      1.0458                 1.0982                 1.0992
 Frc consts  --      5.6602                 6.1693                 6.1803
 IR Inten    --     62.9908                12.5933                54.3687

                     82                     83                     84
                      A                      A                      A
 Frequencies --   3171.5577              3182.0629              3204.6854
 Red. masses --      1.0981                 1.0957                 1.0872
 Frc consts  --      6.5076                 6.5365                 6.5787
 IR Inten    --      1.9826                34.7619                 9.4011

                     85                     86                     87
                      A                      A                      A
 Frequencies --   3211.4723              3224.0090              3227.5742
 Red. masses --      1.0905                 1.0928                 1.0913
 Frc consts  --      6.6267                 6.6926                 6.6983
 IR Inten    --     12.2515                 5.9942                 7.0267

                     88                     89                     90
                      A                      A                      A
 Frequencies --   3244.1622              3247.0985              3260.0687
 Red. masses --      1.0890                 1.0919                 1.0940
 Frc consts  --      6.7530                 6.7831                 6.8503
 IR Inten    --      3.8566                11.3453                 1.2992

 - Thermochemistry -
 -------------------
 Temperature   298.150 Kelvin.  Pressure   1.00000 Atm.
 Atom     1 has atomic number  6 and mass  12.00000

 Molecular mass:   280.06818 amu.
 Principal axes and moments of inertia in atomic units:
                           1         2         3
     Eigenvalues --  1847.86245********************
           X            0.99994  -0.01097  -0.00136
           Y            0.01096   0.99994  -0.00205
           Z            0.00138   0.00203   1.00000
 This molecule is an asymmetric top.
 Rotational symmetry number  1.
 Warning -- assumption of classical behavior for rotation
           may cause significant error
 Rotational temperatures (Kelvin)      0.04687     0.00625     0.00574
 Rotational constants (GHZ):           0.97666     0.13016     0.11960
 Zero-point vibrational energy     651373.7 (Joules/Mol)
                                  155.68204 (Kcal/Mol)
 Warning -- explicit consideration of  27 degrees of freedom as
           vibrations may cause significant error
 Vibrational temperatures:     37.79    52.10    75.20    85.56   110.58
          (Kelvin)            118.97   168.74   242.71   243.01   288.33
                              295.40   362.88   400.51   428.90   484.08
                              522.53   543.01   585.10   606.26   617.51
                              664.17   689.56   703.24   743.59   807.85
                              820.16   862.98   895.47   925.80   985.75
                             1028.33  1086.84  1106.90  1141.32  1180.35
                             1230.78  1244.15  1251.77  1277.94  1393.96
                             1400.35  1434.41  1444.77  1449.24  1502.69
                             1570.12  1586.69  1637.78  1654.21  1654.70
                             1663.79  1698.09  1746.86  1759.25  1785.16
                             1899.15  1906.77  1928.80  1940.64  1981.75
                             2008.68  2036.96  2052.17  2063.88  2115.40
                             2153.79  2171.73  2175.98  2188.78  2201.10
                             2228.35  2257.84  2259.85  2351.12  2375.74
                             2380.66  2425.43  4348.39  4360.82  4442.59
                             4444.70  4563.16  4578.28  4610.83  4620.59
                             4638.63  4643.76  4667.63  4671.85  4690.51

 Zero-point correction=                           0.248095 (Hartree/Particle)
 Thermal correction to Energy=                    0.265281
 Thermal correction to Enthalpy=                  0.266225
 Thermal correction to Gibbs Free Energy=         0.201038
 Sum of electronic and zero-point Energies=          -1260.096330
 Sum of electronic and thermal Energies=             -1260.079145
 Sum of electronic and thermal Enthalpies=           -1260.078201
 Sum of electronic and thermal Free Energies=        -1260.143388

                     E (Thermal)             CV                S
                      KCal/Mol        Cal/Mol-Kelvin    Cal/Mol-Kelvin
 Total                  166.466             64.529            137.197
 Electronic               0.000              0.000              0.000
 Translational            0.889              2.981             42.788
 Rotational               0.889              2.981             34.313
 Vibrational            164.689             58.567             60.096
 Vibration     1          0.593              1.985              6.093
 Vibration     2          0.594              1.982              5.456
 Vibration     3          0.596              1.977              4.730
 Vibration     4          0.597              1.974              4.475
 Vibration     5          0.599              1.965              3.969
 Vibration     6          0.600              1.961              3.826
 Vibration     7          0.608              1.935              3.145
 Vibration     8          0.625              1.881              2.450
 Vibration     9          0.625              1.881              2.448
 Vibration    10          0.638              1.839              2.129
 Vibration    11          0.640              1.832              2.085
 Vibration    12          0.664              1.759              1.715
 Vibration    13          0.679              1.714              1.544
 Vibration    14          0.691              1.677              1.428
 Vibration    15          0.717              1.603              1.229
 Vibration    16          0.737              1.548              1.108
 Vibration    17          0.748              1.518              1.050
 Vibration    18          0.771              1.456              0.938
 Vibration    19          0.784              1.424              0.887
 Vibration    20          0.791              1.407              0.861
 Vibration    21          0.819              1.335              0.761
 Vibration    22          0.836              1.296              0.712
 Vibration    23          0.845              1.275              0.687
 Vibration    24          0.872              1.213              0.617
 Vibration    25          0.917              1.115              0.521
 Vibration    26          0.926              1.096              0.504
 Vibration    27          0.958              1.032              0.450

 Optimization completed.
    -- Stationary point found.
 Normal termination of Gaussian 16 at Fri Oct  4 16:56:29 2024.
 Gaussian 16:  ES64L-G16RevC.01  3-Jul-2019

 -------------------------------------------------------
 #p apfd/6-31G* volume NMR pop=NPA geom=check guess=read
 -------------------------------------------------------

 -------
 ID-4003
 -------
 Structure from the checkpoint file:  "ID-4003.chk"
 Charge =  0 Multiplicity = 1

                         Standard orientation:
 ---------------------------------------------------------------------
 Center     Atomic      Atomic             Coordinates (Angstroms)
 Number     Number       Type             X           Y           Z
 ---------------------------------------------------------------------
      1          6           0        6.060739   -0.918579    0.153311
      2          7           0        4.639153   -1.152350    0.057963
      3          6           0        4.120955   -2.469432    0.341639
      4          6           0        3.776849   -0.083794   -0.038843
      5          6           0        4.255425    1.234737   -0.205683
      6          6           0        3.373180    2.301683   -0.315423
      7          6           0        1.996452    2.112172   -0.256275
      8          6           0        1.500332    0.815194   -0.082077
      9          6           0        0.047445    0.577660   -0.011907
     10          6           0       -0.811073    1.449252    0.665893
     11          6           0       -2.175681    1.184324    0.706499
     12          6           0       -2.604374    0.031262    0.061809
     13         16           0       -4.342586   -0.389216    0.126005
     14          9           0       -4.704854   -0.180802   -1.424942
     15          8           0       -4.529310   -1.791582    0.402499
     16          8           0       -5.049452    0.645122    0.849326
     17          7           0       -1.832251   -0.819601   -0.595734
     18          6           0       -0.535158   -0.540826   -0.634896
     19          6           0        2.380468   -0.264044    0.029000
     20          1           0        6.575792   -1.876528    0.239083
     21          1           0        6.327472   -0.307672    1.028965
     22          1           0        6.444647   -0.416232   -0.743952
     23          1           0        4.944815   -3.184687    0.348212
     24          1           0        3.411283   -2.791220   -0.431183
     25          1           0        3.613400   -2.523288    1.317049
     26          1           0        5.321060    1.430383   -0.250373
     27          1           0        3.773778    3.303063   -0.455162
     28          1           0        1.315666    2.950091   -0.377355
     29          1           0       -0.405322    2.318187    1.177080
     30          1           0       -2.879550    1.828525    1.222164
     31          1           0        0.084327   -1.228989   -1.206114
     32          1           0        1.966124   -1.249284    0.211507
 ---------------------------------------------------------------------

 SCF Done:  E(RAPFD) =  -1260.34442554     A.U. after    3 cycles

      1  C    Isotropic =   153.6777   Anisotropy =    53.4819

      2  N    Isotropic =   209.5228   Anisotropy =    87.0883

      3  C    Isotropic =   153.7723   Anisotropy =    52.0466

      4  C    Isotropic =    54.2970   Anisotropy =   151.1544

      5  C    Isotropic =    86.3887   Anisotropy =   143.2536

      6  C    Isotropic =    68.7912   Anisotropy =   166.2163

      7  C    Isotropic =    83.3258   Anisotropy =   140.5883

      8  C    Isotropic =    62.3159   Anisotropy =   165.4813

      9  C    Isotropic =    55.5988   Anisotropy =   183.2609

     10  C    Isotropic =    63.3140   Anisotropy =   171.9708

     11  C    Isotropic =    74.9077   Anisotropy =   166.1285

     12  C    Isotropic =    44.9988   Anisotropy =   100.6525

     13  S    Isotropic =   233.6272   Anisotropy =   325.3248

     14  F    Isotropic =   122.7434   Anisotropy =   333.4189

     15  O    Isotropic =   110.1500   Anisotropy =    69.7760

     16  O    Isotropic =   122.3047   Anisotropy =    71.0511

     17  N    Isotropic =   -49.2031   Anisotropy =   514.5682

     18  C    Isotropic =    50.2273   Anisotropy =   143.8723

     19  C    Isotropic =    88.4247   Anisotropy =   127.8288

     20  H    Isotropic =    29.4178   Anisotropy =     8.3930

     21  H    Isotropic =    29.1210   Anisotropy =     9.6514

     22  H    Isotropic =    28.8367   Anisotropy =     9.6909

     23  H    Isotropic =    29.4041   Anisotropy =     8.1886

     24  H    Isotropic =    28.8369   Anisotropy =     9.1782

     25  H    Isotropic =    29.0904   Anisotropy =     8.7139

     26  H    Isotropic =    25.5153   Anisotropy =     8.2519

     27  H    Isotropic =    24.7553   Anisotropy =     4.6248

     28  H    Isotropic =    25.3509   Anisotropy =     7.0542

     29  H    Isotropic =    24.2803   Anisotropy =     8.7790

     30  H    Isotropic =    24.2027   Anisotropy =     8.3382

     31  H    Isotropic =    23.2407   Anisotropy =     8.9919

     32  H    Isotropic =    25.6067   Anisotropy =    11.7942

 The electronic state is 1-A.
 Alpha  occ. eigenvalues --  -89.22602 -24.77673 -19.21021 -19.20825 -14.40532
 Alpha  occ. eigenvalues --  -14.40206 -10.29859 -10.27326 -10.26682 -10.25976
 Alpha  occ. eigenvalues --  -10.25823 -10.25761 -10.25261 -10.25232 -10.24001
 Alpha  occ. eigenvalues --  -10.22552 -10.22238 -10.22046 -10.21809  -8.20510
 Alpha  occ. eigenvalues --   -6.15448  -6.15111  -6.14987  -1.26785  -1.12954
 Alpha  occ. eigenvalues --   -1.04845  -1.00186  -0.98512  -0.88816  -0.85084
 Alpha  occ. eigenvalues --   -0.82875  -0.77861  -0.77612  -0.75350  -0.71316
 Alpha  occ. eigenvalues --   -0.69341  -0.67526  -0.65125  -0.62093  -0.59847
 Alpha  occ. eigenvalues --   -0.58744  -0.55812  -0.53831  -0.52966  -0.50921
 Alpha  occ. eigenvalues --   -0.50210  -0.50053  -0.49645  -0.48891  -0.48409
 Alpha  occ. eigenvalues --   -0.46201  -0.45163  -0.44493  -0.44345  -0.43834
 Alpha  occ. eigenvalues --   -0.43138  -0.42859  -0.42116  -0.41662  -0.40072
 Alpha  occ. eigenvalues --   -0.39093  -0.38487  -0.37803  -0.36104  -0.35155
 Alpha  occ. eigenvalues --   -0.34538  -0.33045  -0.32655  -0.31357  -0.29754
 Alpha  occ. eigenvalues --   -0.29405  -0.25912  -0.21107
 Alpha virt. eigenvalues --   -0.06878  -0.04498  -0.00438   0.00676   0.04327
 Alpha virt. eigenvalues --    0.07507   0.08258   0.10171   0.10385   0.11220
 Alpha virt. eigenvalues --    0.11444   0.12379   0.12859   0.14490   0.15071

 Mulliken charges:
               1
     1  C   -0.381258
     2  N   -0.508940
     3  C   -0.380816
     4  C    0.377939
     5  C   -0.220445
     6  C   -0.177214
     7  C   -0.209604
     8  C    0.066221
     9  C    0.021802
    10  C   -0.149562
    11  C   -0.172756
    12  C   -0.025652
    13  S    1.259513
    14  F   -0.297959
    15  O   -0.457552
    16  O   -0.488600
    17  N   -0.415728
    18  C    0.004825
    19  C   -0.274521
    20  H    0.186123
    21  H    0.182978
    22  H    0.189350
    23  H    0.186908
    24  H    0.189224
    25  H    0.183779
    26  H    0.168882
    27  H    0.171263
    28  H    0.166571
    29  H    0.201142
    30  H    0.232949
    31  H    0.196967
    32  H    0.174174
 Sum of Mulliken charges =  -0.00000

 Dipole moment (field-independent basis, Debye):
    X=              8.6566    Y=              1.3672    Z=              0.5783  Tot=              8.7830
 Quadrupole moment (field-independent basis, Debye-Ang):
   XX=           -121.5237   YY=           -109.0127   ZZ=           -118.7046
   XY=            -13.6908   XZ=              2.4546   YZ=              0.5071

 Summary of Natural Population Analysis:

                                       Natural Population
                Natural  -----------------------------------------------
    Atom  No    Charge         Core      Valence    Rydberg      Total
 -----------------------------------------------------------------------
      C    1   -0.49402      1.99947     4.48204    0.01251     6.49402
      N    2   -0.43777      1.99932     5.42737    0.01108     7.43777
      C    3   -0.49484      1.99947     4.48275    0.01262     6.49484
      C    4    0.18661      1.99906     3.79580    0.01853     5.81339
      C    5   -0.29181      1.99907     4.28057    0.01217     6.29181
      C    6   -0.21538      1.99911     4.20165    0.01462     6.21538
      C    7   -0.26816      1.99903     4.25619    0.01294     6.26816
      C    8   -0.05593      1.99903     4.04140    0.01550     6.05593
      C    9   -0.05576      1.99901     4.04219    0.01456     6.05576
      C   10   -0.18853      1.99905     4.17592    0.01357     6.18853
      C   11   -0.24981      1.99896     4.23588    0.01497     6.24981
      C   12   -0.10436      1.99878     4.06949    0.03608     6.10436
      S   13    2.42194      9.99875     3.37382    0.20550    13.57806
      F   14   -0.49749      1.99997     7.48777    0.00975     9.49749
      O   15   -0.88005      1.99988     6.85579    0.02438     8.88005
      O   16   -0.91171      1.99988     6.88821    0.02361     8.91171
      N   17   -0.41690      1.99936     5.39221    0.02533     7.41690
      C   18    0.04077      1.99913     3.93767    0.02243     5.95923
      C   19   -0.28364      1.99903     4.27348    0.01113     6.28364
      H   20    0.24406      0.00000     0.75541    0.00053     0.75594
      H   21    0.22771      0.00000     0.77015    0.00214     0.77229
      H   22    0.23455      0.00000     0.76388    0.00157     0.76545
      H   23    0.24452      0.00000     0.75495    0.00053     0.75548
      H   24    0.23534      0.00000     0.76303    0.00163     0.76466
      H   25    0.22739      0.00000     0.77047    0.00215     0.77261
      H   26    0.24730      0.00000     0.75180    0.00090     0.75270
      H   27    0.24976      0.00000     0.74946    0.00078     0.75024
      H   28    0.24587      0.00000     0.75327    0.00086     0.75413
      H   29    0.26407      0.00000     0.73501    0.00092     0.73593
      H   30    0.28561      0.00000     0.71333    0.00107     0.71439
      H   31    0.24400      0.00000     0.75478    0.00122     0.75600
      H   32    0.24665      0.00000     0.75229    0.00106     0.75335
 =======================================================================
   * Total *   -0.00000     45.98534    99.48802    0.52664   146.00000

 Normal termination of Gaussian 16 at Fri Oct  4 16:57:10 2024.
