 Gaussian 16, Revision C.01,

 -------------------------------
 #p apfd/6-31G* opt freq=noraman
 -------------------------------

 -------
 ID-4004
 -------
 Symbolic Z-matrix:
 Charge =  0 Multiplicity = 1

 SCF Done:  E(RAPFD) =  -1354.15115604     A.U. after   16 cycles
 SCF Done:  E(RAPFD) =  -1354.15901783     A.U. after   12 cycles
 SCF Done:  E(RAPFD) =  -1354.16052276     A.U. after   12 cycles
 SCF Done:  E(RAPFD) =  -1354.16132045     A.U. after   13 cycles
 SCF Done:  E(RAPFD) =  -1354.16200142     A.U. after   14 cycles
 SCF Done:  E(RAPFD) =  -1354.16226346     A.U. after   11 cycles
 SCF Done:  E(RAPFD) =  -1354.16229951     A.U. after   10 cycles
 SCF Done:  E(RAPFD) =  -1354.16230529     A.U. after   10 cycles
 SCF Done:  E(RAPFD) =  -1354.16230573     A.U. after    8 cycles
 Optimization completed.
    -- Stationary point found.
 Normal termination of Gaussian 16 at Fri Oct  4 16:31:49 2024.

 -------------------------------------------------------------------
 #P Geom=AllCheck Guess=TCheck SCRF=Check GenChk RAPFD/6-31G(d) Freq
 -------------------------------------------------------------------

 Structure from the checkpoint file:  "ID-4004.chk"
 -------
 ID-4004
 -------
 Charge =  0 Multiplicity = 1

 SCF Done:  E(RAPFD) =  -1354.16230573     A.U. after    1 cycles

  Exact polarizability:     298.674       0.136     153.428       4.351       4.699      87.834
 Approx polarizability:     378.733       3.230     283.077       2.736      10.666     142.400

                      1                      2                      3
                      A                      A                      A
 Frequencies --     27.0207                35.4327                55.8455
 Red. masses --      9.2138                 7.8582                 6.1363
 Frc consts  --      0.0040                 0.0058                 0.0113
 IR Inten    --      0.0613                 0.3912                 0.3522

                      4                      5                      6
                      A                      A                      A
 Frequencies --     68.6678                95.8935               124.7278
 Red. masses --      4.9912                 5.3354                 5.1920
 Frc consts  --      0.0139                 0.0289                 0.0476
 IR Inten    --      1.4470                 5.9455                 2.8806

                      7                      8                      9
                      A                      A                      A
 Frequencies --    160.3835               169.0806               199.8101
 Red. masses --      7.3783                 6.4151                 7.1612
 Frc consts  --      0.1118                 0.1081                 0.1685
 IR Inten    --      0.7684                 0.5258                 0.2025

                     10                     11                     12
                      A                      A                      A
 Frequencies --    230.5912               290.2665               325.5723
 Red. masses --      6.8375                 7.0033                 3.3312
 Frc consts  --      0.2142                 0.3477                 0.2080
 IR Inten    --      0.1997                 1.3972                 0.7272

                     13                     14                     15
                      A                      A                      A
 Frequencies --    338.6481               356.4333               377.7591
 Red. masses --      3.8445                 7.1825                 8.1508
 Frc consts  --      0.2598                 0.5376                 0.6853
 IR Inten    --      9.1613                 2.7268                15.8406

                     16                     17                     18
                      A                      A                      A
 Frequencies --    412.3028               419.2075               448.2703
 Red. masses --      4.7029                 4.3735                 5.9042
 Frc consts  --      0.4710                 0.4528                 0.6990
 IR Inten    --      2.4773                 1.1306                 5.1279

                     19                     20                     21
                      A                      A                      A
 Frequencies --    471.8392               486.6495               489.7689
 Red. masses --      3.4632                 7.8743                 8.3018
 Frc consts  --      0.4543                 1.0987                 1.1733
 IR Inten    --      3.1469                 4.9359                13.9032

                     22                     23                     24
                      A                      A                      A
 Frequencies --    494.0186               527.7405               557.3412
 Red. masses --      7.4143                 4.0532                 3.7222
 Frc consts  --      1.0661                 0.6651                 0.6812
 IR Inten    --      7.4832                12.2251                 8.3045

                     25                     26                     27
                      A                      A                      A
 Frequencies --    587.9613               620.3778               633.2050
 Red. masses --     11.1456                 7.0280                 5.6617
 Frc consts  --      2.2701                 1.5936                 1.3375
 IR Inten    --     69.7470                17.4762                59.5276

                     28                     29                     30
                      A                      A                      A
 Frequencies --    650.8676               693.4999               721.5644
 Red. masses --      4.8337                 3.3295                 4.9626
 Frc consts  --      1.2065                 0.9435                 1.5223
 IR Inten    --     11.4357                42.6102                 0.4117

                     31                     32                     33
                      A                      A                      A
 Frequencies --    763.9992               769.4570               790.1535
 Red. masses --      5.2455                 7.0857                 5.0589
 Frc consts  --      1.8039                 2.4717                 1.8609
 IR Inten    --     13.2848                18.5976                 6.7619

                     34                     35                     36
                      A                      A                      A
 Frequencies --    824.6008               834.9006               871.2432
 Red. masses --     13.6028                 1.4409                 1.4097
 Frc consts  --      5.4496                 0.5918                 0.6304
 IR Inten    --    285.0910                23.1192                20.4728

                     37                     38                     39
                      A                      A                      A
 Frequencies --    895.6017               904.9211               922.4629
 Red. masses --      1.4396                 4.2079                 2.8318
 Frc consts  --      0.6803                 2.0302                 1.4198
 IR Inten    --     10.6113                12.2893                37.4662

                     40                     41                     42
                      A                      A                      A
 Frequencies --    949.6316               965.7809               973.0483
 Red. masses --      1.2907                 1.5812                 2.0818
 Frc consts  --      0.6858                 0.8690                 1.1614
 IR Inten    --      1.5203                 2.7384                12.7548

                     43                     44                     45
                      A                      A                      A
 Frequencies --   1002.5911              1037.7316              1071.0714
 Red. masses --      1.3297                 3.8735                 2.5865
 Frc consts  --      0.7875                 2.4577                 1.7482
 IR Inten    --      0.0431                 8.8011                 2.8537

                     46                     47                     48
                      A                      A                      A
 Frequencies --   1098.9225              1116.4263              1135.7095
 Red. masses --      3.8296                 2.9362                 2.0653
 Frc consts  --      2.7248                 2.1562                 1.5695
 IR Inten    --     19.3981                74.7118                11.2414

                     49                     50                     51
                      A                      A                      A
 Frequencies --   1136.6178              1174.6650              1182.3058
 Red. masses --      2.7420                 1.4445                 1.4559
 Frc consts  --      2.0871                 1.1744                 1.1991
 IR Inten    --     19.1985                25.7246                29.0052

                     52                     53                     54
                      A                      A                      A
 Frequencies --   1222.0296              1244.8538              1269.1946
 Red. masses --     10.7746                 2.9298                 1.2214
 Frc consts  --      9.4801                 2.6750                 1.1592
 IR Inten    --    249.7339                22.4597                 6.7697

                     55                     56                     57
                      A                      A                      A
 Frequencies --   1293.0126              1308.2954              1325.3886
 Red. masses --      1.5880                 1.3631                 1.6816
 Frc consts  --      1.5643                 1.3747                 1.7404
 IR Inten    --     56.7667                18.5905                21.6253

                     58                     59                     60
                      A                      A                      A
 Frequencies --   1341.9222              1348.9246              1374.6556
 Red. masses --      1.6046                 3.1804                 3.3012
 Frc consts  --      1.7025                 3.4096                 3.6755
 IR Inten    --      0.7539               141.7977               329.2517

                     61                     62                     63
                      A                      A                      A
 Frequencies --   1381.8467              1413.1655              1421.0444
 Red. masses --      7.5184                 1.4712                 2.8943
 Frc consts  --      8.4586                 1.7311                 3.4436
 IR Inten    --      4.9965                 1.2516                57.3752

                     64                     65                     66
                      A                      A                      A
 Frequencies --   1428.8851              1433.6374              1491.4144
 Red. masses --      5.7480                 2.1377                 3.3245
 Frc consts  --      6.9145                 2.5886                 4.3569
 IR Inten    --    164.2098                25.6940                18.4338

                     67                     68                     69
                      A                      A                      A
 Frequencies --   1515.4356              1521.0993              1525.4156
 Red. masses --      1.7128                 1.2053                 1.4487
 Frc consts  --      2.3175                 1.6431                 1.9862
 IR Inten    --     94.2761                 8.1798                45.1024

                     70                     71                     72
                      A                      A                      A
 Frequencies --   1576.5452              1631.1340              1654.0127
 Red. masses --      3.6012                 6.7690                 7.0368
 Frc consts  --      5.2736                10.6109                11.3424
 IR Inten    --    184.2412                17.7597                65.5542

                     73                     74                     75
                      A                      A                      A
 Frequencies --   1654.6509              1693.7159              3056.4837
 Red. masses --      6.7329                 6.8825                 1.0707
 Frc consts  --     10.8609                11.6326                 5.8932
 IR Inten    --     17.7952                19.7859                45.4000

                     76                     77                     78
                      A                      A                      A
 Frequencies --   3067.3422              3159.4201              3159.9204
 Red. masses --      1.0653                 1.0979                 1.1015
 Frc consts  --      5.9054                 6.4569                 6.4802
 IR Inten    --     44.4444                33.1688                20.6879

                     79                     80                     81
                      A                      A                      A
 Frequencies --   3210.8836              3220.2631              3223.2443
 Red. masses --      1.0904                 1.0881                 1.0909
 Frc consts  --      6.6237                 6.6484                 6.6776
 IR Inten    --     12.9519                 2.2528                 2.1897

                     82                     83                     84
                      A                      A                      A
 Frequencies --   3227.0737              3236.7630              3260.0923
 Red. masses --      1.0904                 1.0951                 1.0939
 Frc consts  --      6.6906                 6.7598                 6.8502
 IR Inten    --      3.2534                 3.2613                 1.3575

 - Thermochemistry -
 -------------------
 Temperature   298.150 Kelvin.  Pressure   1.00000 Atm.
 Atom     1 has atomic number  9 and mass  18.99840

 Molecular mass:   295.03146 amu.
 Principal axes and moments of inertia in atomic units:
                           1         2         3
     Eigenvalues --  1442.99289********************
           X            0.99999  -0.00215   0.00321
           Y            0.00211   0.99993   0.01167
           Z           -0.00323  -0.01167   0.99993
 This molecule is an asymmetric top.
 Rotational symmetry number  1.
 Warning -- assumption of classical behavior for rotation
           may cause significant error
 Rotational temperatures (Kelvin)      0.06002     0.00514     0.00490
 Rotational constants (GHZ):           1.25069     0.10718     0.10211
 Zero-point vibrational energy     576506.5 (Joules/Mol)
                                  137.78835 (Kcal/Mol)
 Warning -- explicit consideration of  26 degrees of freedom as
           vibrations may cause significant error
 Vibrational temperatures:     38.88    50.98    80.35    98.80   137.97
          (Kelvin)            179.46   230.76   243.27   287.48   331.77
                              417.63   468.43   487.24   512.83   543.51
                              593.21   603.15   644.96   678.87   700.18
                              704.67   710.78   759.30   801.89   845.95
                              892.59   911.04   936.45   997.79  1038.17
                             1099.22  1107.08  1136.85  1186.42  1201.24
                             1253.52  1288.57  1301.98  1327.22  1366.31
                             1389.54  1400.00  1442.50  1493.06  1541.03
                             1581.10  1606.29  1634.03  1635.34  1690.08
                             1701.07  1758.23  1791.07  1826.09  1860.36
                             1882.35  1906.94  1930.73  1940.80  1977.82
                             1988.17  2033.23  2044.57  2055.85  2062.68
                             2145.81  2180.37  2188.52  2194.73  2268.30
                             2346.84  2379.76  2380.67  2436.88  4397.60
                             4413.22  4545.70  4546.42  4619.75  4633.24
                             4637.53  4643.04  4656.98  4690.55

 Zero-point correction=                           0.219580 (Hartree/Particle)
 Thermal correction to Energy=                    0.235538
 Thermal correction to Enthalpy=                  0.236482
 Thermal correction to Gibbs Free Energy=         0.174197
 Sum of electronic and zero-point Energies=          -1353.942726
 Sum of electronic and thermal Energies=             -1353.926768
 Sum of electronic and thermal Enthalpies=           -1353.925824
 Sum of electronic and thermal Free Energies=        -1353.988109

                     E (Thermal)             CV                S
                      KCal/Mol        Cal/Mol-Kelvin    Cal/Mol-Kelvin
 Total                  147.802             61.808            131.090
 Electronic               0.000              0.000              0.000
 Translational            0.889              2.981             42.943
 Rotational               0.889              2.981             34.417
 Vibrational            146.025             55.846             53.730
 Vibration     1          0.593              1.984              6.037
 Vibration     2          0.594              1.982              5.499
 Vibration     3          0.596              1.975              4.599
 Vibration     4          0.598              1.969              4.191
 Vibration     5          0.603              1.952              3.536
 Vibration     6          0.610              1.928              3.026
 Vibration     7          0.622              1.891              2.545
 Vibration     8          0.625              1.881              2.446
 Vibration     9          0.638              1.840              2.135
 Vibration    10          0.652              1.794              1.874
 Vibration    11          0.686              1.692              1.472
 Vibration    12          0.710              1.624              1.282
 Vibration    13          0.719              1.598              1.219
 Vibration    14          0.732              1.562              1.138
 Vibration    15          0.748              1.518              1.048
 Vibration    16          0.776              1.444              0.919
 Vibration    17          0.782              1.429              0.895
 Vibration    18          0.807              1.365              0.801
 Vibration    19          0.829              1.313              0.732
 Vibration    20          0.843              1.280              0.692
 Vibration    21          0.846              1.273              0.684
 Vibration    22          0.850              1.263              0.673
 Vibration    23          0.883              1.189              0.592
 Vibration    24          0.913              1.124              0.529
 Vibration    25          0.945              1.057              0.471
 Vibration    26          0.980              0.989              0.416

                           ! Non-Optimized Parameters !
 Normal termination of Gaussian 16 at Fri Oct  4 16:37:45 2024.
 Gaussian 16:  ES64L-G16RevC.01  3-Jul-2019

 -------------------------------------------------------
 #p apfd/6-31G* volume NMR pop=NPA geom=check guess=read
 -------------------------------------------------------

 -------
 ID-4004
 -------
 Structure from the checkpoint file:  "ID-4004.chk"
 Charge =  0 Multiplicity = 1

                         Standard orientation:
 ---------------------------------------------------------------------
 Center     Atomic      Atomic             Coordinates (Angstroms)
 Number     Number       Type             X           Y           Z
 ---------------------------------------------------------------------
      1          9           0       -4.975756   -0.219023    1.541617
      2         16           0       -4.751848   -0.124268   -0.046195
      3          6           0       -2.965037   -0.034536   -0.066994
      4          6           0       -2.252003   -1.100248   -0.600692
      5          6           0       -0.868121   -0.970577   -0.631786
      6          6           0       -0.264543    0.186295   -0.126421
      7          6           0        1.194700    0.373779   -0.133883
      8          6           0        2.048390   -0.707649    0.108577
      9          6           0        3.427366   -0.543618    0.104077
     10          8           0        4.205543   -1.637281    0.348419
     11          6           0        5.565384   -1.448513   -0.018446
     12          6           0        6.064338   -0.101340    0.477374
     13          8           0        5.322513    0.952684   -0.122844
     14          6           0        3.978925    0.729996   -0.133046
     15          6           0        3.132832    1.805184   -0.392681
     16          6           0        1.755747    1.632660   -0.395255
     17          6           0       -1.116729    1.174917    0.399947
     18          7           0       -2.439710    1.077107    0.424131
     19          8           0       -5.163314   -1.400240   -0.589647
     20          8           0       -5.341216    1.122099   -0.466561
     21          1           0       -2.763672   -1.976905   -0.982807
     22          1           0       -0.256075   -1.755237   -1.068603
     23          1           0        1.656739   -1.696322    0.331651
     24          1           0        5.663476   -1.504054   -1.111485
     25          1           0        6.124355   -2.271434    0.433621
     26          1           0        7.109550    0.062789    0.204307
     27          1           0        5.963996   -0.044558    1.569916
     28          1           0        3.581518    2.774299   -0.591188
     29          1           0        1.111886    2.476394   -0.627127
     30          1           0       -0.698114    2.078577    0.837821
 ---------------------------------------------------------------------

 SCF Done:  E(RAPFD) =  -1354.16230573     A.U. after    1 cycles

      1  F    Isotropic =   122.5596   Anisotropy =   333.6621

      2  S    Isotropic =   233.9128   Anisotropy =   326.1613

      3  C    Isotropic =    45.2622   Anisotropy =   100.5050

      4  C    Isotropic =    74.7364   Anisotropy =   166.1003

      5  C    Isotropic =    64.2210   Anisotropy =   170.7351

      6  C    Isotropic =    57.4651   Anisotropy =   180.7329

      7  C    Isotropic =    69.8184   Anisotropy =   154.8541

      8  C    Isotropic =    81.5178   Anisotropy =   127.7477

      9  C    Isotropic =    55.7867   Anisotropy =   120.6959

     10  O    Isotropic =   245.6010   Anisotropy =   114.3249

     11  C    Isotropic =   131.8947   Anisotropy =    46.0434

     12  C    Isotropic =   131.9639   Anisotropy =    45.2850

     13  O    Isotropic =   242.8087   Anisotropy =   122.7410

     14  C    Isotropic =    54.9677   Anisotropy =   122.3747

     15  C    Isotropic =    79.7379   Anisotropy =   138.5312

     16  C    Isotropic =    77.7030   Anisotropy =   146.3237

     17  C    Isotropic =    50.6575   Anisotropy =   144.0420

     18  N    Isotropic =   -49.6654   Anisotropy =   515.8998

     19  O    Isotropic =   122.2531   Anisotropy =    70.6397

     20  O    Isotropic =   110.1187   Anisotropy =    69.8994

     21  H    Isotropic =    24.2124   Anisotropy =     8.5504

     22  H    Isotropic =    24.3458   Anisotropy =     9.1259

     23  H    Isotropic =    25.1968   Anisotropy =     9.0279

     24  H    Isotropic =    28.0649   Anisotropy =     8.4851

     25  H    Isotropic =    28.1075   Anisotropy =     7.5316

     26  H    Isotropic =    28.1066   Anisotropy =     7.5172

     27  H    Isotropic =    28.0689   Anisotropy =     8.3203

     28  H    Isotropic =    25.1568   Anisotropy =     5.3465

     29  H    Isotropic =    25.0260   Anisotropy =     6.6676

     30  H    Isotropic =    23.3041   Anisotropy =     8.8909

 The electronic state is 1-A.
 Alpha  occ. eigenvalues --  -89.22655 -24.77718 -19.24569 -19.24447 -19.21070
 Alpha  occ. eigenvalues --  -19.20870 -14.40318 -10.29931 -10.29206 -10.29124
 Alpha  occ. eigenvalues --  -10.29051 -10.29026 -10.27477 -10.26291 -10.25974
 Alpha  occ. eigenvalues --  -10.25908 -10.24516 -10.23477 -10.23353 -10.23205
 Alpha  occ. eigenvalues --   -8.20562  -6.15500  -6.15163  -6.15040  -1.26830
 Alpha  occ. eigenvalues --   -1.13121  -1.13003  -1.09490  -1.04896  -1.00301
 Alpha  occ. eigenvalues --   -0.90213  -0.85879  -0.83404  -0.80722  -0.78889
 Alpha  occ. eigenvalues --   -0.75553  -0.71886  -0.70048  -0.67811  -0.65732
 Alpha  occ. eigenvalues --   -0.63874  -0.60187  -0.58867  -0.57595  -0.55263
 Alpha  occ. eigenvalues --   -0.54972  -0.53873  -0.52532  -0.50945  -0.50035
 Alpha  occ. eigenvalues --   -0.48968  -0.48076  -0.47157  -0.46715  -0.46260
 Alpha  occ. eigenvalues --   -0.45738  -0.44827  -0.44079  -0.43540  -0.43228
 Alpha  occ. eigenvalues --   -0.42614  -0.41965  -0.39750  -0.39143  -0.38626
 Alpha  occ. eigenvalues --   -0.36083  -0.35839  -0.35242  -0.34501  -0.33064
 Alpha  occ. eigenvalues --   -0.32781  -0.32219  -0.30172  -0.29554  -0.26050
 Alpha  occ. eigenvalues --   -0.23429
 Alpha virt. eigenvalues --   -0.07051  -0.04630  -0.01557   0.00224   0.04265
 Alpha virt. eigenvalues --    0.07315   0.07454   0.09864   0.10211   0.11062
 Alpha virt. eigenvalues --    0.11744   0.12077   0.12668   0.13445   0.14607

 Mulliken charges:
               1
     1  F   -0.297949
     2  S    1.259788
     3  C   -0.025987
     4  C   -0.172997
     5  C   -0.149582
     6  C    0.028740
     7  C    0.056410
     8  C   -0.266726
     9  C    0.333530
    10  O   -0.520771
    11  C   -0.123457
    12  C   -0.122788
    13  O   -0.516199
    14  C    0.336590
    15  C   -0.229351
    16  C   -0.204669
    17  C    0.002765
    18  N   -0.414547
    19  O   -0.488634
    20  O   -0.456605
    21  H    0.233385
    22  H    0.199903
    23  H    0.187719
    24  H    0.192333
    25  H    0.196700
    26  H    0.196727
    27  H    0.193851
    28  H    0.191552
    29  H    0.181592
    30  H    0.198677
 Sum of Mulliken charges =  -0.00000

 Dipole moment (field-independent basis, Debye):
    X=              9.5367    Y=             -1.7027    Z=             -0.1519  Tot=              9.6887
 Quadrupole moment (field-independent basis, Debye-Ang):
   XX=           -126.8943   YY=           -116.7039   ZZ=           -120.0579
   XY=             -1.9121   XZ=              0.5233   YZ=              1.2415

 Summary of Natural Population Analysis:

                                       Natural Population
                Natural  -----------------------------------------------
    Atom  No    Charge         Core      Valence    Rydberg      Total
 -----------------------------------------------------------------------
      F    1   -0.49751      1.99997     7.48779    0.00975     9.49751
      S    2    2.42208      9.99874     3.37363    0.20555    13.57792
      C    3   -0.10530      1.99878     4.07044    0.03607     6.10530
      C    4   -0.24875      1.99896     4.23478    0.01501     6.24875
      C    5   -0.19095      1.99905     4.17839    0.01351     6.19095
      C    6   -0.05860      1.99902     4.04515    0.01444     6.05860
      C    7   -0.08477      1.99902     4.07092    0.01482     6.08477
      C    8   -0.25331      1.99899     4.24076    0.01355     6.25331
      C    9    0.25049      1.99873     3.72822    0.02256     5.74951
      O   10   -0.51981      1.99975     6.50707    0.01298     8.51981
      C   11   -0.16062      1.99926     4.14301    0.01834     6.16062
      C   12   -0.16075      1.99926     4.14321    0.01828     6.16075
      O   13   -0.51623      1.99975     6.50340    0.01308     8.51623
      C   14    0.25491      1.99873     3.72416    0.02220     5.74509
      C   15   -0.26495      1.99904     4.25101    0.01489     6.26495
      C   16   -0.23289      1.99906     4.22112    0.01271     6.23289
      C   17    0.04145      1.99913     3.93703    0.02238     5.95855
      N   18   -0.41554      1.99936     5.39084    0.02534     7.41554
      O   19   -0.91172      1.99988     6.88823    0.02361     8.91172
      O   20   -0.87927      1.99988     6.85498    0.02440     8.87927
      H   21    0.28589      0.00000     0.71305    0.00107     0.71411
      H   22    0.26246      0.00000     0.73665    0.00088     0.73754
      H   23    0.25990      0.00000     0.73882    0.00128     0.74010
      H   24    0.22949      0.00000     0.76822    0.00229     0.77051
      H   25    0.25095      0.00000     0.74809    0.00095     0.74905
      H   26    0.25078      0.00000     0.74826    0.00096     0.74922
      H   27    0.23057      0.00000     0.76715    0.00228     0.76943
      H   28    0.26421      0.00000     0.73472    0.00107     0.73579
      H   29    0.25370      0.00000     0.74547    0.00083     0.74630
      H   30    0.24407      0.00000     0.75481    0.00112     0.75593
 =======================================================================
   * Total *   -0.00000     47.98439   103.44940    0.56621   152.00000

 Normal termination of Gaussian 16 at Fri Oct  4 16:38:34 2024.
