 Gaussian 16, Revision C.01,

 -------------------------------
 #p apfd/6-31G* opt freq=noraman
 -------------------------------

 -------
 ID-4005
 -------
 Symbolic Z-matrix:
 Charge =  0 Multiplicity = 1

 SCF Done:  E(RAPFD) =  -1297.21945625     A.U. after   15 cycles
 SCF Done:  E(RAPFD) =  -1297.22859637     A.U. after   13 cycles
 SCF Done:  E(RAPFD) =  -1297.22952420     A.U. after   12 cycles
 SCF Done:  E(RAPFD) =  -1297.22961906     A.U. after   11 cycles
 SCF Done:  E(RAPFD) =  -1297.22973443     A.U. after   11 cycles
 SCF Done:  E(RAPFD) =  -1297.18026395     A.U. after   15 cycles
 SCF Done:  E(RAPFD) =  -1297.21636801     A.U. after   13 cycles
 SCF Done:  E(RAPFD) =  -1297.22976067     A.U. after    9 cycles
 SCF Done:  E(RAPFD) =  -1297.23146561     A.U. after   15 cycles
 SCF Done:  E(RAPFD) =  -1297.20146342     A.U. after   14 cycles
 SCF Done:  E(RAPFD) =  -1297.23189968     A.U. after   11 cycles
 SCF Done:  E(RAPFD) =  -1297.23312499     A.U. after   15 cycles
 SCF Done:  E(RAPFD) =  -1297.23377028     A.U. after   14 cycles
 SCF Done:  E(RAPFD) =  -1297.23400560     A.U. after   13 cycles
 SCF Done:  E(RAPFD) =  -1297.23403146     A.U. after   11 cycles
 SCF Done:  E(RAPFD) =  -1297.23403704     A.U. after   10 cycles
 SCF Done:  E(RAPFD) =  -1297.23403750     A.U. after    8 cycles
 SCF Done:  E(RAPFD) =  -1297.23403756     A.U. after    7 cycles
 Optimization completed.
    -- Stationary point found.
 Normal termination of Gaussian 16 at Fri Oct  4 16:51:00 2024.

 -------------------------------------------------------------------
 #P Geom=AllCheck Guess=TCheck SCRF=Check GenChk RAPFD/6-31G(d) Freq
 -------------------------------------------------------------------

 Structure from the checkpoint file:  "ID-4005.chk"
 -------
 ID-4005
 -------
 Charge =  0 Multiplicity = 1

 SCF Done:  E(RAPFD) =  -1297.23403756     A.U. after    1 cycles

  Exact polarizability:     326.550      -0.381     164.270       0.555       3.550      88.604
 Approx polarizability:     426.021      -4.707     299.351       0.027      14.275     149.159

                      1                      2                      3
                      A                      A                      A
 Frequencies --     27.7530                33.3188                54.4308
 Red. masses --      8.6561                 6.7897                 5.8627
 Frc consts  --      0.0039                 0.0044                 0.0102
 IR Inten    --      0.1277                 0.0503                 0.6725

                      4                      5                      6
                      A                      A                      A
 Frequencies --     69.0745                78.0256               103.2161
 Red. masses --      2.7640                 1.3864                 5.7031
 Frc consts  --      0.0078                 0.0050                 0.0358
 IR Inten    --      1.9724                 0.2129                 2.5467

                      7                      8                      9
                      A                      A                      A
 Frequencies --    139.9685               170.6043               180.4936
 Red. masses --      4.5714                 5.3236                 6.3947
 Frc consts  --      0.0528                 0.0913                 0.1227
 IR Inten    --      1.7733                 0.2629                 0.6034

                     10                     11                     12
                      A                      A                      A
 Frequencies --    215.3496               234.7344               258.6596
 Red. masses --      6.0848                 4.3889                 4.5047
 Frc consts  --      0.1663                 0.1425                 0.1776
 IR Inten    --      0.4109                 2.7229                 0.7830

                     13                     14                     15
                      A                      A                      A
 Frequencies --    283.4469               333.5360               388.1942
 Red. masses --      5.2695                 9.3670                 7.7758
 Frc consts  --      0.2494                 0.6140                 0.6904
 IR Inten    --      1.0148                 2.4646                 1.9156

                     16                     17                     18
                      A                      A                      A
 Frequencies --    392.9598               413.8816               421.9245
 Red. masses --      7.0234                 3.9457                 3.9898
 Frc consts  --      0.6390                 0.3982                 0.4185
 IR Inten    --      7.6395                 4.0089                 9.6029

                     19                     20                     21
                      A                      A                      A
 Frequencies --    440.0829               479.9062               484.3375
 Red. masses --      3.4804                 7.9892                 7.2552
 Frc consts  --      0.3971                 1.0841                 1.0028
 IR Inten    --      1.0456                15.2041                11.9671

                     22                     23                     24
                      A                      A                      A
 Frequencies --    506.0862               555.9103               578.1025
 Red. masses --      5.1536                 3.9944                 9.0999
 Frc consts  --      0.7777                 0.7273                 1.7918
 IR Inten    --      3.6983                 6.8539                74.9500

                     25                     26                     27
                      A                      A                      A
 Frequencies --    599.5113               610.9765               624.0019
 Red. masses --      3.6517                 5.2831                 7.0160
 Frc consts  --      0.7733                 1.1619                 1.6096
 IR Inten    --      1.2371                26.6043                 4.6370

                     28                     29                     30
                      A                      A                      A
 Frequencies --    638.4596               655.6130               732.7994
 Red. masses --      7.1462                 3.6839                 1.4861
 Frc consts  --      1.7163                 0.9330                 0.4702
 IR Inten    --     65.9757                 5.4609                43.2389

                     31                     32                     33
                      A                      A                      A
 Frequencies --    735.4916               765.1378               781.7498
 Red. masses --      5.5419                 4.6999                 2.9384
 Frc consts  --      1.7663                 1.6211                 1.0580
 IR Inten    --     45.3812                10.7460                13.3779

                     34                     35                     36
                      A                      A                      A
 Frequencies --    792.1861               801.4990               820.8682
 Red. masses --      6.8454                 5.5638                 1.6587
 Frc consts  --      2.5311                 2.1059                 0.6585
 IR Inten    --     28.8789                62.2877                43.4508

                     37                     38                     39
                      A                      A                      A
 Frequencies --    827.0550               859.2695               873.5167
 Red. masses --     10.8469                 1.2953                 1.4474
 Frc consts  --      4.3714                 0.5635                 0.6507
 IR Inten    --    196.5484                 0.1353                16.6483

                     40                     41                     42
                      A                      A                      A
 Frequencies --    910.3391               930.0539               944.3325
 Red. masses --      1.4644                 4.6505                 1.2789
 Frc consts  --      0.7150                 2.3701                 0.6720
 IR Inten    --     10.2997                 2.7606                 0.8352

                     43                     44                     45
                      A                      A                      A
 Frequencies --    967.6797              1002.5820              1034.0177
 Red. masses --      1.4070                 1.3276                 3.1049
 Frc consts  --      0.7763                 0.7863                 1.9560
 IR Inten    --      1.2573                 0.0501                 7.9733

                     46                     47                     48
                      A                      A                      A
 Frequencies --   1043.2451              1065.7205              1118.4941
 Red. masses --      2.2276                 2.6008                 1.1646
 Frc consts  --      1.4285                 1.7404                 0.8584
 IR Inten    --      6.7892                 1.8628                18.2579

                     49                     50                     51
                      A                      A                      A
 Frequencies --   1134.3024              1144.2952              1158.4823
 Red. masses --      2.8574                 2.3525                 1.2983
 Frc consts  --      2.1661                 1.8149                 1.0266
 IR Inten    --     26.0673                 2.7730                 0.0662

                     52                     53                     54
                      A                      A                      A
 Frequencies --   1180.3056              1202.3196              1217.9667
 Red. masses --      1.4320                 1.3805                 4.0118
 Frc consts  --      1.1754                 1.1758                 3.5064
 IR Inten    --      9.6791                20.8381               201.3368

                     55                     56                     57
                      A                      A                      A
 Frequencies --   1227.4238              1292.2689              1317.6589
 Red. masses --      2.7573                 1.5943                 1.8191
 Frc consts  --      2.4475                 1.5686                 1.8609
 IR Inten    --     70.8045                15.6339                15.0325

                     58                     59                     60
                      A                      A                      A
 Frequencies --   1332.2298              1342.3503              1375.8696
 Red. masses --      3.8444                 1.3792                 4.0459
 Frc consts  --      4.0201                 1.4643                 4.5125
 IR Inten    --     16.9595                 1.1660                12.1170

                     61                     62                     63
                      A                      A                      A
 Frequencies --   1399.1097              1422.7006              1426.8189
 Red. masses --      4.7962                 5.2363                 4.9361
 Frc consts  --      5.5316                 6.2445                 5.9207
 IR Inten    --     28.5628                70.5005               104.2428

                     64                     65                     66
                      A                      A                      A
 Frequencies --   1428.6417              1454.2392              1479.2462
 Red. masses --      5.3729                 4.3910                 1.2734
 Frc consts  --      6.4611                 5.4712                 1.6417
 IR Inten    --     88.5094                26.9361                18.1322

                     67                     68                     69
                      A                      A                      A
 Frequencies --   1507.4879              1512.2539              1519.7199
 Red. masses --      1.0389                 3.3828                 3.0841
 Frc consts  --      1.3910                 4.5580                 4.1967
 IR Inten    --      9.6717                 1.0226                87.8151

                     70                     71                     72
                      A                      A                      A
 Frequencies --   1544.4473              1559.6972              1590.2099
 Red. masses --      1.1409                 3.7437                 4.7575
 Frc consts  --      1.6034                 5.3658                 7.0883
 IR Inten    --     31.0438                16.8758                19.8285

                     73                     74                     75
                      A                      A                      A
 Frequencies --   1630.8380              1646.9252              1652.0935
 Red. masses --      6.5823                 6.6859                 6.0386
 Frc consts  --     10.3146                10.6846                 9.7109
 IR Inten    --      1.9551                 6.2591                47.9737

                     76                     77                     78
                      A                      A                      A
 Frequencies --   1693.4232              3068.2298              3134.1893
 Red. masses --      6.8715                 1.0351                 1.1059
 Frc consts  --     11.6101                 5.7416                 6.4008
 IR Inten    --     31.0652                63.3694                17.2340

                     79                     80                     81
                      A                      A                      A
 Frequencies --   3184.9297              3207.9457              3209.6687
 Red. masses --      1.1018                 1.0887                 1.0907
 Frc consts  --      6.5851                 6.6008                 6.6201
 IR Inten    --      6.5112                13.1277                 7.9471

                     82                     83                     84
                      A                      A                      A
 Frequencies --   3212.5921              3224.7154              3227.2581
 Red. masses --      1.0890                 1.0904                 1.0952
 Frc consts  --      6.6218                 6.6808                 6.7209
 IR Inten    --      2.1961                 4.4697                 9.0311

                     85                     86                     87
                      A                      A                      A
 Frequencies --   3259.4762              3277.5688              3297.2552
 Red. masses --      1.0939                 1.0898                 1.1041
 Frc consts  --      6.8473                 6.8975                 7.0723
 IR Inten    --      1.0997                 0.0906                 3.7850

 - Thermochemistry -
 -------------------
 Temperature   298.150 Kelvin.  Pressure   1.00000 Atm.
 Atom     1 has atomic number  6 and mass  12.00000

 Molecular mass:   290.05253 amu.
 Principal axes and moments of inertia in atomic units:
                           1         2         3
     Eigenvalues --  1362.42258********************
           X            0.99998   0.00598  -0.00080
           Y           -0.00598   0.99998   0.00278
           Z            0.00082  -0.00278   1.00000
 This molecule is an asymmetric top.
 Rotational symmetry number  1.
 Warning -- assumption of classical behavior for rotation
           may cause significant error
 Rotational temperatures (Kelvin)      0.06357     0.00516     0.00493
 Rotational constants (GHZ):           1.32466     0.10754     0.10268
 Zero-point vibrational energy     608156.0 (Joules/Mol)
                                  145.35278 (Kcal/Mol)
 Warning -- explicit consideration of  26 degrees of freedom as
           vibrations may cause significant error
 Vibrational temperatures:     39.93    47.94    78.31    99.38   112.26
          (Kelvin)            148.50   201.38   245.46   259.69   309.84
                              337.73   372.15   407.82   479.88   558.52
                              565.38   595.48   607.06   633.18   690.48
                              696.85   728.15   799.83   831.76   862.56
                              879.06   897.80   918.60   943.28  1054.33
                             1058.21  1100.86  1124.76  1139.78  1153.18
                             1181.05  1189.95  1236.30  1256.80  1309.77
                             1338.14  1358.68  1392.28  1442.49  1487.72
                             1501.00  1533.33  1609.26  1632.01  1646.39
                             1666.80  1698.20  1729.87  1752.38  1765.99
                             1859.29  1895.82  1916.78  1931.34  1979.57
                             2013.01  2046.95  2052.87  2055.50  2092.33
                             2128.31  2168.94  2175.80  2186.54  2222.12
                             2244.06  2287.96  2346.41  2369.56  2376.99
                             2436.46  4414.50  4509.40  4582.40  4615.52
                             4618.00  4622.20  4639.65  4643.30  4689.66
                             4715.69  4744.01

 Zero-point correction=                           0.231634 (Hartree/Particle)
 Thermal correction to Energy=                    0.248218
 Thermal correction to Enthalpy=                  0.249162
 Thermal correction to Gibbs Free Energy=         0.185417
 Sum of electronic and zero-point Energies=          -1297.002403
 Sum of electronic and thermal Energies=             -1296.985820
 Sum of electronic and thermal Enthalpies=           -1296.984876
 Sum of electronic and thermal Free Energies=        -1297.048620

                     E (Thermal)             CV                S
                      KCal/Mol        Cal/Mol-Kelvin    Cal/Mol-Kelvin
 Total                  155.759             63.558            134.162
 Electronic               0.000              0.000              0.000
 Translational            0.889              2.981             42.892
 Rotational               0.889              2.981             34.351
 Vibrational            153.981             57.596             56.918
 Vibration     1          0.593              1.984              5.984
 Vibration     2          0.594              1.983              5.621
 Vibration     3          0.596              1.976              4.650
 Vibration     4          0.598              1.969              4.180
 Vibration     5          0.599              1.964              3.940
 Vibration     6          0.605              1.947              3.393
 Vibration     7          0.615              1.913              2.804
 Vibration     8          0.626              1.879              2.429
 Vibration     9          0.629              1.866              2.323
 Vibration    10          0.645              1.818              1.998
 Vibration    11          0.655              1.788              1.842
 Vibration    12          0.667              1.748              1.671
 Vibration    13          0.682              1.704              1.513
 Vibration    14          0.715              1.609              1.243
 Vibration    15          0.756              1.495              1.007
 Vibration    16          0.760              1.485              0.989
 Vibration    17          0.777              1.440              0.913
 Vibration    18          0.784              1.423              0.885
 Vibration    19          0.800              1.383              0.826
 Vibration    20          0.836              1.295              0.710
 Vibration    21          0.840              1.285              0.698
 Vibration    22          0.861              1.237              0.643
 Vibration    23          0.911              1.127              0.532
 Vibration    24          0.935              1.079              0.489
 Vibration    25          0.958              1.033              0.450
 Vibration    26          0.970              1.009              0.431

                           ! Non-Optimized Parameters !
 Normal termination of Gaussian 16 at Fri Oct  4 16:57:55 2024.
 Gaussian 16:  ES64L-G16RevC.01  3-Jul-2019

 -------------------------------------------------------
 #p apfd/6-31G* volume NMR pop=NPA geom=check guess=read
 -------------------------------------------------------

 -------
 ID-4005
 -------
 Structure from the checkpoint file:  "ID-4005.chk"
 Charge =  0 Multiplicity = 1

                         Standard orientation:
 ---------------------------------------------------------------------
 Center     Atomic      Atomic             Coordinates (Angstroms)
 Number     Number       Type             X           Y           Z
 ---------------------------------------------------------------------
      1          6           0       -6.332274   -1.232189    0.195662
      2          7           0       -5.367421   -0.178340    0.011029
      3          6           0       -5.644163    1.145221   -0.253132
      4          6           0       -4.484106    1.858575   -0.376038
      5          6           0       -3.412861    0.933022   -0.175239
      6          6           0       -4.007129   -0.335461    0.062258
      7          6           0       -3.244583   -1.482506    0.294073
      8          6           0       -1.866723   -1.349316    0.281654
      9          6           0       -1.242212   -0.099678    0.049237
     10          6           0        0.226484   -0.004662    0.043803
     11          6           0        0.900661    1.092308    0.592660
     12          6           0        2.289629    1.141454    0.559464
     13          6           0        2.936720    0.062568   -0.029235
     14         16           0        4.722841    0.079181   -0.115864
     15          9           0        5.031223   -1.128301    0.898956
     16          8           0        5.188614   -0.350480   -1.410638
     17          8           0        5.213016    1.279994    0.525316
     18          7           0        2.344672   -0.994276   -0.563629
     19          6           0        1.018483   -1.019504   -0.526074
     20          6           0       -2.018901    1.036923   -0.176594
     21          1           0       -7.337281   -0.816953    0.102220
     22          1           0       -6.231419   -1.682664    1.189303
     23          1           0       -6.205084   -2.013946   -0.561408
     24          1           0       -6.672937    1.471508   -0.332282
     25          1           0       -4.403727    2.917002   -0.582898
     26          1           0       -3.709619   -2.445631    0.487258
     27          1           0       -1.247720   -2.218081    0.489478
     28          1           0        0.336607    1.891711    1.065887
     29          1           0        2.853467    1.966473    0.981150
     30          1           0        0.546111   -1.881638   -0.992161
     31          1           0       -1.542817    1.991702   -0.387537
 ---------------------------------------------------------------------

 SCF Done:  E(RAPFD) =  -1297.23403756     A.U. after    1 cycles

      1  C    Isotropic =   160.7029   Anisotropy =    50.3744

      2  N    Isotropic =   133.4677   Anisotropy =    84.5467

      3  C    Isotropic =    69.7729   Anisotropy =    90.0930

      4  C    Isotropic =    96.4528   Anisotropy =   107.6441

      5  C    Isotropic =    69.6884   Anisotropy =   154.5740

      6  C    Isotropic =    65.5161   Anisotropy =   136.5167

      7  C    Isotropic =    88.2922   Anisotropy =   144.9358

      8  C    Isotropic =    77.3264   Anisotropy =   147.2477

      9  C    Isotropic =    70.5584   Anisotropy =   157.2564

     10  C    Isotropic =    55.5955   Anisotropy =   182.5247

     11  C    Isotropic =    63.7626   Anisotropy =   170.1769

     12  C    Isotropic =    74.6617   Anisotropy =   165.5741

     13  C    Isotropic =    45.7805   Anisotropy =    99.5722

     14  S    Isotropic =   232.5996   Anisotropy =   320.1527

     15  F    Isotropic =   122.3971   Anisotropy =   334.8065

     16  O    Isotropic =   109.7872   Anisotropy =    71.8197

     17  O    Isotropic =   122.3364   Anisotropy =    70.4363

     18  N    Isotropic =   -49.0101   Anisotropy =   514.7327

     19  C    Isotropic =    50.1919   Anisotropy =   143.5964

     20  C    Isotropic =    77.2170   Anisotropy =   143.3888

     21  H    Isotropic =    28.5907   Anisotropy =     8.9011

     22  H    Isotropic =    28.3935   Anisotropy =     9.8692

     23  H    Isotropic =    28.3844   Anisotropy =    10.0186

     24  H    Isotropic =    25.3362   Anisotropy =     3.6632

     25  H    Isotropic =    25.7203   Anisotropy =     3.7086

     26  H    Isotropic =    24.7742   Anisotropy =     7.3108

     27  H    Isotropic =    24.6934   Anisotropy =     8.0383

     28  H    Isotropic =    24.2294   Anisotropy =     9.3269

     29  H    Isotropic =    24.1785   Anisotropy =     8.5018

     30  H    Isotropic =    23.2242   Anisotropy =     9.3026

     31  H    Isotropic =    24.4716   Anisotropy =     9.2936

 The electronic state is 1-A.
 Alpha  occ. eigenvalues --  -89.22337 -24.77400 -19.20764 -19.20563 -14.43812
 Alpha  occ. eigenvalues --  -14.39898 -10.29502 -10.27040 -10.26992 -10.25755
 Alpha  occ. eigenvalues --  -10.25751 -10.25628 -10.25524 -10.25439 -10.23633
 Alpha  occ. eigenvalues --  -10.23146 -10.22968 -10.22819 -10.22570 -10.21313
 Alpha  occ. eigenvalues --   -8.20245  -6.15183  -6.14847  -6.14721  -1.26498
 Alpha  occ. eigenvalues --   -1.12691  -1.04581  -1.02817  -0.99857  -0.89035
 Alpha  occ. eigenvalues --   -0.85271  -0.83518  -0.82211  -0.77968  -0.75658
 Alpha  occ. eigenvalues --   -0.72929  -0.70642  -0.67619  -0.65631  -0.63387
 Alpha  occ. eigenvalues --   -0.61111  -0.59772  -0.58436  -0.55075  -0.54120
 Alpha  occ. eigenvalues --   -0.52591  -0.52170  -0.50516  -0.49638  -0.49558
 Alpha  occ. eigenvalues --   -0.48283  -0.47162  -0.46635  -0.45254  -0.44814
 Alpha  occ. eigenvalues --   -0.44271  -0.43831  -0.43043  -0.42994  -0.41819
 Alpha  occ. eigenvalues --   -0.41710  -0.40784  -0.38656  -0.38343  -0.36416
 Alpha  occ. eigenvalues --   -0.35894  -0.34885  -0.34172  -0.32492  -0.31947
 Alpha  occ. eigenvalues --   -0.30371  -0.29519  -0.29146  -0.23878  -0.22497
 Alpha virt. eigenvalues --   -0.06498  -0.04156  -0.02475   0.01379   0.04661
 Alpha virt. eigenvalues --    0.05929   0.07772   0.08451   0.10475   0.10647
 Alpha virt. eigenvalues --    0.11287   0.12186   0.13048   0.13886   0.14477

 Mulliken charges:
               1
     1  C   -0.389176
     2  N   -0.535740
     3  C    0.028904
     4  C   -0.262654
     5  C    0.064079
     6  C    0.328559
     7  C   -0.191413
     8  C   -0.226653
     9  C    0.054516
    10  C    0.028681
    11  C   -0.152085
    12  C   -0.172605
    13  C   -0.027328
    14  S    1.258054
    15  F   -0.299317
    16  O   -0.457442
    17  O   -0.489806
    18  N   -0.415938
    19  C    0.001626
    20  C   -0.263650
    21  H    0.199512
    22  H    0.201933
    23  H    0.202421
    24  H    0.190090
    25  H    0.175303
    26  H    0.174180
    27  H    0.175014
    28  H    0.198018
    29  H    0.231578
    30  H    0.196527
    31  H    0.174815
 Sum of Mulliken charges =  -0.00000

 Dipole moment (field-independent basis, Debye):
    X=            -10.6272    Y=              0.1149    Z=              1.5309  Tot=             10.7375
 Quadrupole moment (field-independent basis, Debye-Ang):
   XX=           -119.2554   YY=           -111.2646   ZZ=           -125.2871
   XY=              6.9857   XZ=              4.8552   YZ=             -1.7574

 Summary of Natural Population Analysis:

                                       Natural Population
                Natural  -----------------------------------------------
    Atom  No    Charge         Core      Valence    Rydberg      Total
 -----------------------------------------------------------------------
      C    1   -0.49130      1.99947     4.47950    0.01234     6.49130
      N    2   -0.37731      1.99926     5.36713    0.01091     7.37731
      C    3   -0.02265      1.99914     4.00524    0.01826     6.02265
      C    4   -0.31814      1.99903     4.30626    0.01285     6.31814
      C    5   -0.09130      1.99904     4.07690    0.01535     6.09130
      C    6    0.16515      1.99902     3.81758    0.01824     5.83485
      C    7   -0.26620      1.99901     4.25427    0.01292     6.26620
      C    8   -0.23085      1.99909     4.21848    0.01328     6.23085
      C    9   -0.09540      1.99903     4.08148    0.01488     6.09540
      C   10   -0.05444      1.99902     4.04090    0.01452     6.05444
      C   11   -0.19285      1.99905     4.18025    0.01355     6.19285
      C   12   -0.24929      1.99896     4.23535    0.01498     6.24929
      C   13   -0.10811      1.99878     4.07333    0.03600     6.10811
      S   14    2.42154      9.99874     3.37426    0.20545    13.57846
      F   15   -0.49863      1.99997     7.48895    0.00971     9.49863
      O   16   -0.88006      1.99988     6.85581    0.02438     8.88006
      O   17   -0.91271      1.99988     6.88925    0.02357     8.91271
      N   18   -0.41677      1.99936     5.39210    0.02532     7.41677
      C   19    0.03904      1.99913     3.93944    0.02239     5.96096
      C   20   -0.19747      1.99899     4.18628    0.01220     6.19747
      H   21    0.25046      0.00000     0.74895    0.00058     0.74954
      H   22    0.24397      0.00000     0.75473    0.00131     0.75603
      H   23    0.24420      0.00000     0.75448    0.00132     0.75580
      H   24    0.24297      0.00000     0.75657    0.00046     0.75703
      H   25    0.25693      0.00000     0.74259    0.00048     0.74307
      H   26    0.25099      0.00000     0.74816    0.00085     0.74901
      H   27    0.25005      0.00000     0.74910    0.00085     0.74995
      H   28    0.26208      0.00000     0.73701    0.00091     0.73792
      H   29    0.28491      0.00000     0.71402    0.00107     0.71509
      H   30    0.24319      0.00000     0.75569    0.00111     0.75681
      H   31    0.24798      0.00000     0.75101    0.00102     0.75202
 =======================================================================
   * Total *   -0.00000     47.98386   101.47507    0.54107   150.00000

 Normal termination of Gaussian 16 at Fri Oct  4 16:58:34 2024.
