 Gaussian 16, Revision C.01,

 -------------------------------
 #p apfd/6-31G* opt freq=noraman
 -------------------------------

 -------
 ID-4006
 -------
 Symbolic Z-matrix:
 Charge =  0 Multiplicity = 1

 SCF Done:  E(RAPFD) =  -1123.30279261     A.U. after   16 cycles
 SCF Done:  E(RAPFD) =  -1123.30932930     A.U. after   13 cycles
 SCF Done:  E(RAPFD) =  -1123.30961853     A.U. after   13 cycles
 SCF Done:  E(RAPFD) =  -1123.30969120     A.U. after   13 cycles
 SCF Done:  E(RAPFD) =  -1123.31032142     A.U. after   12 cycles
 SCF Done:  E(RAPFD) =  -1123.31048299     A.U. after   12 cycles
 SCF Done:  E(RAPFD) =  -1123.31105581     A.U. after   15 cycles
 SCF Done:  E(RAPFD) =  -1123.31131494     A.U. after   11 cycles
 SCF Done:  E(RAPFD) =  -1123.31194222     A.U. after   13 cycles
 SCF Done:  E(RAPFD) =  -1123.31278812     A.U. after   15 cycles
 SCF Done:  E(RAPFD) =  -1123.31421551     A.U. after   13 cycles
 SCF Done:  E(RAPFD) =  -1123.31436054     A.U. after   11 cycles
 SCF Done:  E(RAPFD) =  -1123.31442669     A.U. after   11 cycles
 SCF Done:  E(RAPFD) =  -1123.31443675     A.U. after   11 cycles
 SCF Done:  E(RAPFD) =  -1123.31444013     A.U. after    9 cycles
 SCF Done:  E(RAPFD) =  -1123.31444062     A.U. after    8 cycles
 SCF Done:  E(RAPFD) =  -1123.31444070     A.U. after    7 cycles
 SCF Done:  E(RAPFD) =  -1123.31444073     A.U. after    7 cycles
 Optimization completed.
    -- Stationary point found.
 Normal termination of Gaussian 16 at Fri Oct  4 20:02:31 2024.

 -------------------------------------------------------------------
 #P Geom=AllCheck Guess=TCheck SCRF=Check GenChk RAPFD/6-31G(d) Freq
 -------------------------------------------------------------------

 Structure from the checkpoint file:  "ID-4006.chk"
 -------
 ID-4006
 -------
 Charge =  0 Multiplicity = 1

 SCF Done:  E(RAPFD) =  -1123.31444073     A.U. after    1 cycles

  Exact polarizability:     156.424      -2.583     103.382      -2.328      -1.819      55.776
 Approx polarizability:     200.075       3.219     193.645      -3.708      -5.745      88.118

                      1                      2                      3
                      A                      A                      A
 Frequencies --     32.0540                50.5539                66.0921
 Red. masses --      8.9902                 6.1634                 5.4839
 Frc consts  --      0.0054                 0.0093                 0.0141
 IR Inten    --      0.2165                 0.0641                 4.1662

                      4                      5                      6
                      A                      A                      A
 Frequencies --    110.1525               125.5044               144.2173
 Red. masses --      6.1996                 2.1131                 1.5611
 Frc consts  --      0.0443                 0.0196                 0.0191
 IR Inten    --      0.8728                 2.4969                 0.2839

                      7                      8                      9
                      A                      A                      A
 Frequencies --    195.1183               204.7481               234.9434
 Red. masses --      6.8088                 6.8986                11.4025
 Frc consts  --      0.1527                 0.1704                 0.3708
 IR Inten    --      2.0252                 2.4312                 0.6706

                     10                     11                     12
                      A                      A                      A
 Frequencies --    317.8405               331.6963               354.6463
 Red. masses --      5.7106                 8.2971                 7.2481
 Frc consts  --      0.3399                 0.5378                 0.5371
 IR Inten    --     12.6472                 1.3659                13.0274

                     13                     14                     15
                      A                      A                      A
 Frequencies --    408.9657               435.5201               448.2004
 Red. masses --      3.4807                 6.8199                10.2325
 Frc consts  --      0.3430                 0.7622                 1.2111
 IR Inten    --      1.1272                12.8744                11.5528

                     16                     17                     18
                      A                      A                      A
 Frequencies --    465.6720               498.9582               531.3288
 Red. masses --     10.3241                 8.0843                 4.4037
 Frc consts  --      1.3191                 1.1858                 0.7325
 IR Inten    --     11.5784                13.2469                10.8674

                     19                     20                     21
                      A                      A                      A
 Frequencies --    614.0705               637.5696               734.3939
 Red. masses --     15.6897                 8.4278                 6.7662
 Frc consts  --      3.4858                 2.0185                 2.1501
 IR Inten    --    135.3340                 3.4927                 7.1820

                     22                     23                     24
                      A                      A                      A
 Frequencies --    761.6986               784.9413               824.7171
 Red. masses --      7.3448                 4.5791                14.7087
 Frc consts  --      2.5107                 1.6623                 5.8943
 IR Inten    --     24.7633                39.5029               227.6914

                     25                     26                     27
                      A                      A                      A
 Frequencies --    863.8695               888.9995               975.1643
 Red. masses --      6.0951                 1.4789                 1.4277
 Frc consts  --      2.6800                 0.6887                 0.7999
 IR Inten    --      9.6465                 8.9493                 1.3594

                     28                     29                     30
                      A                      A                      A
 Frequencies --   1007.6870              1022.9130              1048.6374
 Red. masses --      7.2613                 1.3424                 3.4505
 Frc consts  --      4.3442                 0.8276                 2.2355
 IR Inten    --      4.4356                 0.1765                25.5061

                     31                     32                     33
                      A                      A                      A
 Frequencies --   1138.7208              1142.8993              1154.9450
 Red. masses --      3.4804                 1.2669                 2.4602
 Frc consts  --      2.6590                 0.9750                 1.9335
 IR Inten    --     20.7183                 0.8389                94.0447

                     34                     35                     36
                      A                      A                      A
 Frequencies --   1167.9159              1223.4682              1228.7610
 Red. masses --      1.4263                 2.9961                 3.2303
 Frc consts  --      1.1463                 2.6423                 2.8736
 IR Inten    --      5.6476               168.1995                49.9460

                     37                     38                     39
                      A                      A                      A
 Frequencies --   1331.5175              1339.8893              1377.0582
 Red. masses --      1.4254                 5.0849                 5.9554
 Frc consts  --      1.4890                 5.3786                 6.6538
 IR Inten    --      7.0702               402.1836                80.0914

                     40                     41                     42
                      A                      A                      A
 Frequencies --   1420.3395              1435.1321              1477.7483
 Red. masses --      4.3352                10.4198                 1.2665
 Frc consts  --      5.1528                12.6442                 1.6296
 IR Inten    --     40.2687               208.4135                26.9666

                     43                     44                     45
                      A                      A                      A
 Frequencies --   1506.7973              1514.6945              1516.5915
 Red. masses --      1.0512                 1.6236                 1.3877
 Frc consts  --      1.4062                 2.1947                 1.8806
 IR Inten    --      8.9343                 4.8052                12.1570

                     46                     47                     48
                      A                      A                      A
 Frequencies --   1643.5721              1665.3566              1839.0061
 Red. masses --      7.0567                 6.5755                11.8370
 Frc consts  --     11.2312                10.7447                23.5862
 IR Inten    --      6.9313                43.6926               223.8830

                     49                     50                     51
                      A                      A                      A
 Frequencies --   3077.5334              3160.6339              3213.4400
 Red. masses --      1.0322                 1.1107                 1.1063
 Frc consts  --      5.7599                 6.5373                 6.7306
 IR Inten    --     26.9438                13.6436                11.4083

                     52                     53                     54
                      A                      A                      A
 Frequencies --   3243.1990              3244.0293              3264.7102
 Red. masses --      1.0910                 1.0919                 1.0951
 Frc consts  --      6.7614                 6.7704                 6.8768
 IR Inten    --      0.7018                 3.0551                 2.4617

 - Thermochemistry -
 -------------------
 Temperature   298.150 Kelvin.  Pressure   1.00000 Atm.
 Atom     1 has atomic number  8 and mass  15.99491

 Molecular mass:   219.00016 amu.
 Principal axes and moments of inertia in atomic units:
                           1         2         3
     Eigenvalues --   906.801706717.843237234.54283
           X            0.99993  -0.01126  -0.00243
           Y            0.01124   0.99992  -0.00585
           Z            0.00250   0.00582   0.99998
 This molecule is an asymmetric top.
 Rotational symmetry number  1.
 Warning -- assumption of classical behavior for rotation
           may cause significant error
 Rotational temperatures (Kelvin)      0.09552     0.01289     0.01197
 Rotational constants (GHZ):           1.99023     0.26865     0.24946
 Zero-point vibrational energy     355583.0 (Joules/Mol)
                                   84.98637 (Kcal/Mol)
 Warning -- explicit consideration of  19 degrees of freedom as
           vibrations may cause significant error
 Vibrational temperatures:     46.12    72.74    95.09   158.48   180.57
          (Kelvin)            207.50   280.73   294.59   338.03   457.30
                              477.24   510.26   588.41   626.62   644.86
                              670.00   717.89   764.46   883.51   917.32
                             1056.63  1095.91  1129.36  1186.58  1242.92
                             1279.07  1403.04  1449.84  1471.74  1508.76
                             1638.37  1644.38  1661.71  1680.37  1760.30
                             1767.91  1915.76  1927.80  1981.28  2043.55
                             2064.84  2126.15  2167.95  2179.31  2182.04
                             2364.73  2396.08  2645.92  4427.88  4547.45
                             4623.42  4666.24  4667.43  4697.19

 Zero-point correction=                           0.135434 (Hartree/Particle)
 Thermal correction to Energy=                    0.148191
 Thermal correction to Enthalpy=                  0.149135
 Thermal correction to Gibbs Free Energy=         0.094389
 Sum of electronic and zero-point Energies=          -1123.179006
 Sum of electronic and thermal Energies=             -1123.166250
 Sum of electronic and thermal Enthalpies=           -1123.165305
 Sum of electronic and thermal Free Energies=        -1123.220052

                     E (Thermal)             CV                S
                      KCal/Mol        Cal/Mol-Kelvin    Cal/Mol-Kelvin
 Total                   92.991             45.474            115.224
 Electronic               0.000              0.000              0.000
 Translational            0.889              2.981             42.055
 Rotational               0.889              2.981             32.155
 Vibrational             91.214             39.512             41.015
 Vibration     1          0.594              1.983              5.698
 Vibration     2          0.595              1.977              4.796
 Vibration     3          0.597              1.970              4.266
 Vibration     4          0.606              1.941              3.266
 Vibration     5          0.610              1.928              3.014
 Vibration     6          0.616              1.909              2.747
 Vibration     7          0.636              1.847              2.179
 Vibration     8          0.640              1.833              2.090
 Vibration     9          0.655              1.787              1.841
 Vibration    10          0.704              1.639              1.321
 Vibration    11          0.714              1.612              1.252
 Vibration    12          0.730              1.566              1.145
 Vibration    13          0.773              1.451              0.930
 Vibration    14          0.796              1.393              0.841
 Vibration    15          0.807              1.365              0.801
 Vibration    16          0.823              1.326              0.750
 Vibration    17          0.854              1.252              0.661
 Vibration    18          0.886              1.181              0.584
 Vibration    19          0.973              1.002              0.426

 Optimization completed.
    -- Stationary point found.
 Normal termination of Gaussian 16 at Fri Oct  4 20:04:09 2024.
 Gaussian 16:  ES64L-G16RevC.01  3-Jul-2019

 -------------------------------------------------------
 #p apfd/6-31G* volume NMR pop=NPA geom=check guess=read
 -------------------------------------------------------

 -------
 ID-4006
 -------
 Structure from the checkpoint file:  "ID-4006.chk"
 Charge =  0 Multiplicity = 1

                         Standard orientation:
 ---------------------------------------------------------------------
 Center     Atomic      Atomic             Coordinates (Angstroms)
 Number     Number       Type             X           Y           Z
 ---------------------------------------------------------------------
      1          8           0        3.629999    1.392241   -0.015740
      2          6           0        3.028552    0.341168   -0.002728
      3          8           0        3.607383   -0.866564   -0.003227
      4          6           0        5.037488   -0.854583   -0.019924
      5          6           0        1.542065    0.243789    0.015519
      6          6           0        0.804768    1.426471    0.018893
      7          6           0       -0.583841    1.354504    0.034811
      8          6           0       -1.133032    0.077946    0.051985
      9         16           0       -2.921928   -0.077525    0.113830
     10          9           0       -3.146728   -0.755154   -1.322082
     11          8           0       -3.318751   -1.051594    1.098049
     12          8           0       -3.507101    1.242249    0.040801
     13          7           0       -0.465079   -1.064553    0.051208
     14          6           0        0.861995   -0.980300    0.029284
     15          1           0        5.338211   -1.901598   -0.017360
     16          1           0        5.423695   -0.338700    0.862797
     17          1           0        5.403060   -0.348936   -0.917248
     18          1           0        1.330269    2.377010    0.007795
     19          1           0       -1.216968    2.234899    0.032832
     20          1           0        1.408489   -1.918642    0.024089
 ---------------------------------------------------------------------

 SCF Done:  E(RAPFD) =  -1123.31444073     A.U. after    2 cycles

      1  O    Isotropic =   -57.1855   Anisotropy =   596.6254

      2  C    Isotropic =    37.6880   Anisotropy =    74.5649

      3  O    Isotropic =   167.6141   Anisotropy =   137.0795

      4  C    Isotropic =   142.3363   Anisotropy =    64.2584

      5  C    Isotropic =    69.8187   Anisotropy =   153.1392

      6  C    Isotropic =    58.3639   Anisotropy =   196.6276

      7  C    Isotropic =    75.2234   Anisotropy =   167.2778

      8  C    Isotropic =    40.1436   Anisotropy =   107.0922

      9  S    Isotropic =   236.4918   Anisotropy =   335.6339

     10  F    Isotropic =   123.0688   Anisotropy =   330.5544

     11  O    Isotropic =   108.1796   Anisotropy =    68.3853

     12  O    Isotropic =   121.1954   Anisotropy =    69.9096

     13  N    Isotropic =   -48.1559   Anisotropy =   519.0966

     14  C    Isotropic =    47.8157   Anisotropy =   162.0122

     15  H    Isotropic =    28.4100   Anisotropy =     7.4680

     16  H    Isotropic =    28.1325   Anisotropy =     8.4867

     17  H    Isotropic =    28.1344   Anisotropy =     8.4720

     18  H    Isotropic =    23.4780   Anisotropy =     7.3571

     19  H    Isotropic =    24.1269   Anisotropy =     8.3740

     20  H    Isotropic =    22.8028   Anisotropy =     7.9695

 The electronic state is 1-A.
 Alpha  occ. eigenvalues --  -89.23836 -24.78946 -19.26749 -19.22242 -19.22053
 Alpha  occ. eigenvalues --  -19.20636 -14.41741 -10.36945 -10.31821 -10.29320
 Alpha  occ. eigenvalues --  -10.28308 -10.27603 -10.27478 -10.27278  -8.21746
 Alpha  occ. eigenvalues --   -6.16682  -6.16342  -6.16231  -1.28100  -1.15640
 Alpha  occ. eigenvalues --   -1.14198  -1.06447  -1.06099  -1.01849  -0.87454
 Alpha  occ. eigenvalues --   -0.84578  -0.78021  -0.73188  -0.69554  -0.66597
 Alpha  occ. eigenvalues --   -0.61457  -0.60194  -0.57151  -0.55579  -0.53984
 Alpha  occ. eigenvalues --   -0.52103  -0.51478  -0.50536  -0.49553  -0.48810
 Alpha  occ. eigenvalues --   -0.46772  -0.45351  -0.45100  -0.44814  -0.43200
 Alpha  occ. eigenvalues --   -0.42583  -0.39753  -0.39475  -0.36425  -0.35780
 Alpha  occ. eigenvalues --   -0.34149  -0.33954  -0.33453  -0.32159  -0.31573
 Alpha  occ. eigenvalues --   -0.30385
 Alpha virt. eigenvalues --   -0.09579  -0.06019   0.00367   0.03438   0.06847
 Alpha virt. eigenvalues --    0.09125   0.10198   0.11244   0.11679   0.12443
 Alpha virt. eigenvalues --    0.14335   0.14852   0.15124   0.16785   0.17778

 Mulliken charges:
               1
     1  O   -0.477932
     2  C    0.639151
     3  O   -0.467423
     4  C   -0.295395
     5  C   -0.044901
     6  C   -0.125431
     7  C   -0.174644
     8  C   -0.015295
     9  S    1.267983
    10  F   -0.293914
    11  O   -0.451051
    12  O   -0.482129
    13  N   -0.417025
    14  C    0.032435
    15  H    0.201303
    16  H    0.203567
    17  H    0.203337
    18  H    0.231474
    19  H    0.241976
    20  H    0.223913
 Sum of Mulliken charges =  -0.00000

 Dipole moment (field-independent basis, Debye):
    X=              5.7432    Y=              0.2112    Z=             -0.6414  Tot=              5.7827
 Quadrupole moment (field-independent basis, Debye-Ang):
   XX=            -87.3601   YY=            -85.4956   ZZ=            -85.4181
   XY=            -10.4805   XZ=              2.6231   YZ=              1.4943

 Summary of Natural Population Analysis:

                                       Natural Population
                Natural  -----------------------------------------------
    Atom  No    Charge         Core      Valence    Rydberg      Total
 -----------------------------------------------------------------------
      O    1   -0.58472      1.99979     6.56505    0.01988     8.58472
      C    2    0.81376      1.99936     3.14290    0.04398     5.18624
      O    3   -0.53634      1.99974     6.52541    0.01119     8.53634
      C    4   -0.34912      1.99941     4.33509    0.01461     6.34912
      C    5   -0.18562      1.99890     4.17194    0.01478     6.18562
      C    6   -0.15269      1.99907     4.13865    0.01497     6.15269
      C    7   -0.25737      1.99896     4.24351    0.01490     6.25737
      C    8   -0.07705      1.99880     4.04165    0.03660     6.07705
      S    9    2.42198      9.99876     3.37345    0.20582    13.57802
      F   10   -0.49383      1.99997     7.48398    0.00989     9.49383
      O   11   -0.87371      1.99988     6.84925    0.02458     8.87371
      O   12   -0.90609      1.99988     6.88239    0.02381     8.90609
      N   13   -0.42111      1.99936     5.39624    0.02551     7.42111
      C   14    0.06529      1.99914     3.91324    0.02233     5.93471
      H   15    0.23689      0.00000     0.76261    0.00050     0.76311
      H   16    0.23265      0.00000     0.76606    0.00129     0.76735
      H   17    0.23251      0.00000     0.76620    0.00129     0.76749
      H   18    0.28361      0.00000     0.71502    0.00136     0.71639
      H   19    0.29029      0.00000     0.70867    0.00104     0.70971
      H   20    0.26069      0.00000     0.73821    0.00110     0.73931
 =======================================================================
   * Total *    0.00000     35.99102    75.51953    0.48945   112.00000

 Normal termination of Gaussian 16 at Fri Oct  4 20:04:29 2024.
