 Gaussian 16, Revision C.01,

 -------------------------------
 #p apfd/6-31G* opt freq=noraman
 -------------------------------

 -------
 ID-4007
 -------
 Symbolic Z-matrix:
 Charge =  0 Multiplicity = 1

 SCF Done:  E(RAPFD) =  -1026.06296136     A.U. after   15 cycles
 SCF Done:  E(RAPFD) =  -1026.07222636     A.U. after   13 cycles
 SCF Done:  E(RAPFD) =  -1026.07306267     A.U. after   11 cycles
 SCF Done:  E(RAPFD) =  -1026.07311456     A.U. after    9 cycles
 SCF Done:  E(RAPFD) =  -1026.07312411     A.U. after    9 cycles
 SCF Done:  E(RAPFD) =  -1026.07312474     A.U. after    8 cycles
 SCF Done:  E(RAPFD) =  -1026.07312501     A.U. after    8 cycles
 SCF Done:  E(RAPFD) =  -1026.07312560     A.U. after    9 cycles
 SCF Done:  E(RAPFD) =  -1026.07313203     A.U. after   11 cycles
 SCF Done:  E(RAPFD) =  -1026.02116026     A.U. after   14 cycles
 SCF Done:  E(RAPFD) =  -1026.07394304     A.U. after   14 cycles
 SCF Done:  E(RAPFD) =  -1026.07625870     A.U. after   15 cycles
 SCF Done:  E(RAPFD) =  -1026.07421579     A.U. after   15 cycles
 SCF Done:  E(RAPFD) =  -1026.07750860     A.U. after   14 cycles
 SCF Done:  E(RAPFD) =  -1026.07772026     A.U. after   13 cycles
 SCF Done:  E(RAPFD) =  -1026.07775799     A.U. after   11 cycles
 SCF Done:  E(RAPFD) =  -1026.07776395     A.U. after   11 cycles
 SCF Done:  E(RAPFD) =  -1026.07776543     A.U. after    9 cycles
 Optimization completed.
    -- Stationary point found.
 Normal termination of Gaussian 16 at Fri Oct  4 20:02:01 2024.

 -------------------------------------------------------------------
 #P Geom=AllCheck Guess=TCheck SCRF=Check GenChk RAPFD/6-31G(d) Freq
 -------------------------------------------------------------------

 Structure from the checkpoint file:  "ID-4007.chk"
 -------
 ID-4007
 -------
 Charge =  0 Multiplicity = 1

 SCF Done:  E(RAPFD) =  -1026.07776543     A.U. after    1 cycles

  Exact polarizability:     116.289      -4.813      96.913      -1.716      -1.970      49.994
 Approx polarizability:     175.011      -8.905     162.743      -2.312      -5.791      79.157

                      1                      2                      3
                      A                      A                      A
 Frequencies --     31.2448               105.5811               120.8621
 Red. masses --      9.5588                 5.7903                 4.1698
 Frc consts  --      0.0055                 0.0380                 0.0359
 IR Inten    --      0.1813                 2.2051                 2.1419

                      4                      5                      6
                      A                      A                      A
 Frequencies --    125.0551               172.0997               230.9631
 Red. masses --      5.8462                 1.1833                 3.0492
 Frc consts  --      0.0539                 0.0206                 0.0958
 IR Inten    --      3.0984                 0.0115                 1.4006

                      7                      8                      9
                      A                      A                      A
 Frequencies --    237.8314               277.2585               304.9416
 Red. masses --      5.1027                 9.4390                10.7938
 Frc consts  --      0.1701                 0.4275                 0.5914
 IR Inten    --      1.8606                 0.9072                 1.7560

                     10                     11                     12
                      A                      A                      A
 Frequencies --    351.6682               449.3820               459.9373
 Red. masses --      7.8245                10.7136                 6.7279
 Frc consts  --      0.5701                 1.2747                 0.8385
 IR Inten    --      1.4292                19.2080                 9.2240

                     13                     14                     15
                      A                      A                      A
 Frequencies --    482.2425               499.7832               590.2580
 Red. masses --     11.3300                11.4786                15.3847
 Frc consts  --      1.5524                 1.6893                 3.1581
 IR Inten    --      9.7891                 3.9094               121.0490

                     16                     17                     18
                      A                      A                      A
 Frequencies --    632.4239               645.9606               699.5915
 Red. masses --      6.9757                 6.7937                 8.9780
 Frc consts  --      1.6438                 1.6702                 2.5889
 IR Inten    --     13.9813                 7.0038                31.2330

                     19                     20                     21
                      A                      A                      A
 Frequencies --    756.6411               816.1617               903.4798
 Red. masses --      3.2644                20.2100                 1.4372
 Frc consts  --      1.1011                 7.9317                 0.6912
 IR Inten    --      1.6057               212.3469                17.2762

                     22                     23                     24
                      A                      A                      A
 Frequencies --    948.8462               957.7280              1024.8919
 Red. masses --      7.4414                 1.4657                 6.1009
 Frc consts  --      3.9473                 0.7921                 3.7757
 IR Inten    --      8.8978                 0.4653                21.0929

                     25                     26                     27
                      A                      A                      A
 Frequencies --   1055.0269              1131.5220              1183.0459
 Red. masses --      5.7752                 1.2572                 2.6741
 Frc consts  --      3.7874                 0.9483                 2.2051
 IR Inten    --     63.9262                 0.5182                57.1073

                     28                     29                     30
                      A                      A                      A
 Frequencies --   1192.3297              1218.6572              1247.8327
 Red. masses --      2.0890                 2.7853                 2.2824
 Frc consts  --      1.7498                 2.4372                 2.0939
 IR Inten    --     43.1146                77.6851                41.4113

                     31                     32                     33
                      A                      A                      A
 Frequencies --   1312.3794              1394.0226              1432.5399
 Red. masses --      3.3025                 2.9853                 9.7259
 Frc consts  --      3.3513                 3.4181                11.7596
 IR Inten    --     52.8570               108.9666                77.9554

                     34                     35                     36
                      A                      A                      A
 Frequencies --   1450.8848              1474.6204              1505.2795
 Red. masses --      1.6655                 2.4957                 1.0521
 Frc consts  --      2.0657                 3.1975                 1.4046
 IR Inten    --    254.3942                18.3169                 9.0513

                     37                     38                     39
                      A                      A                      A
 Frequencies --   1509.2379              1536.7925              1614.3076
 Red. masses --      1.1873                 2.3867                 8.1548
 Frc consts  --      1.5934                 3.3211                12.5209
 IR Inten    --      6.6854               166.4744                69.0946

                     40                     41                     42
                      A                      A                      A
 Frequencies --   1662.5591              3066.4000              3147.3448
 Red. masses --      7.2747                 1.0332                 1.1113
 Frc consts  --     11.8473                 5.7241                 6.4857
 IR Inten    --    100.3970                24.3094                13.7141

                     43                     44                     45
                      A                      A                      A
 Frequencies --   3210.5801              3223.3532              3259.0837
 Red. masses --      1.1052                 1.0925                 1.0938
 Frc consts  --      6.7122                 6.6880                 6.8454
 IR Inten    --     15.4900                 5.4768                 1.1774

 - Thermochemistry -
 -------------------
 Temperature   298.150 Kelvin.  Pressure   1.00000 Atm.
 Atom     1 has atomic number  9 and mass  18.99840

 Molecular mass:   192.00049 amu.
 Principal axes and moments of inertia in atomic units:
                           1         2         3
     Eigenvalues --  1242.778743007.369783860.46308
           X            0.99931  -0.03712  -0.00331
           Y            0.03710   0.99930  -0.00545
           Z            0.00351   0.00532   0.99998
 This molecule is an asymmetric top.
 Rotational symmetry number  1.
 Warning -- assumption of classical behavior for rotation
           may cause significant error
 Rotational temperatures (Kelvin)      0.06969     0.02880     0.02244
 Rotational constants (GHZ):           1.45218     0.60011     0.46749
 Zero-point vibrational energy     296988.7 (Joules/Mol)
                                   70.98200 (Kcal/Mol)
 Warning -- explicit consideration of  15 degrees of freedom as
           vibrations may cause significant error
 Vibrational temperatures:     44.95   151.91   173.89   179.93   247.61
          (Kelvin)            332.30   342.19   398.91   438.74   505.97
                              646.56   661.75   693.84   719.08   849.25
                              909.92   929.39  1006.56  1088.64  1174.27
                             1299.91  1365.18  1377.96  1474.59  1517.95
                             1628.01  1702.14  1715.50  1753.38  1795.35
                             1888.22  2005.69  2061.11  2087.50  2121.65
                             2165.76  2171.46  2211.10  2322.63  2392.05
                             4411.87  4528.33  4619.31  4637.69  4689.09

 Zero-point correction=                           0.113117 (Hartree/Particle)
 Thermal correction to Energy=                    0.123830
 Thermal correction to Enthalpy=                  0.124774
 Thermal correction to Gibbs Free Energy=         0.075408
 Sum of electronic and zero-point Energies=          -1025.964648
 Sum of electronic and thermal Energies=             -1025.953936
 Sum of electronic and thermal Enthalpies=           -1025.952992
 Sum of electronic and thermal Free Energies=        -1026.002358

                     E (Thermal)             CV                S
                      KCal/Mol        Cal/Mol-Kelvin    Cal/Mol-Kelvin
 Total                   77.704             38.425            103.899
 Electronic               0.000              0.000              0.000
 Translational            0.889              2.981             41.662
 Rotational               0.889              2.981             31.046
 Vibrational             75.927             32.464             31.191
 Vibration     1          0.594              1.983              5.749
 Vibration     2          0.605              1.945              3.349
 Vibration     3          0.609              1.932              3.087
 Vibration     4          0.610              1.928              3.021
 Vibration     5          0.626              1.877              2.412
 Vibration     6          0.653              1.794              1.871
 Vibration     7          0.656              1.783              1.819
 Vibration     8          0.678              1.716              1.551
 Vibration     9          0.696              1.664              1.390
 Vibration    10          0.728              1.572              1.159
 Vibration    11          0.808              1.362              0.798
 Vibration    12          0.818              1.339              0.766
 Vibration    13          0.838              1.289              0.704
 Vibration    14          0.855              1.250              0.659
 Vibration    15          0.948              1.053              0.467

                           ! Non-Optimized Parameters !
 Normal termination of Gaussian 16 at Fri Oct  4 20:03:55 2024.
 Gaussian 16:  ES64L-G16RevC.01  3-Jul-2019

 -------------------------------------------------------
 #p apfd/6-31G* volume NMR pop=NPA geom=check guess=read
 -------------------------------------------------------

 -------
 ID-4007
 -------
 Structure from the checkpoint file:  "ID-4007.chk"
 Charge =  0 Multiplicity = 1

                         Standard orientation:
 ---------------------------------------------------------------------
 Center     Atomic      Atomic             Coordinates (Angstroms)
 Number     Number       Type             X           Y           Z
 ---------------------------------------------------------------------
      1          9           0       -1.925244   -0.973922   -1.335003
      2         16           0       -1.905553   -0.303173    0.123576
      3          6           0       -0.282641    0.445136    0.045258
      4          6           0       -0.165488    1.821213    0.028931
      5          7           0        1.057242    2.381929    0.000733
      6          6           0        2.094943    1.572059   -0.013389
      7          6           0        1.940838    0.162942    0.001072
      8          8           0        3.047749   -0.573822   -0.016083
      9          6           0        2.877482   -1.992877    0.008874
     10          7           0        0.745443   -0.398242    0.033166
     11          8           0       -2.903920    0.740252    0.109904
     12          8           0       -1.919067   -1.387748    1.072224
     13          1           0       -1.030699    2.475382    0.040019
     14          1           0        3.091034    2.007876   -0.035744
     15          1           0        3.887342   -2.401555   -0.001324
     16          1           0        2.316443   -2.329680   -0.867562
     17          1           0        2.344217   -2.302061    0.912302
 ---------------------------------------------------------------------

 SCF Done:  E(RAPFD) =  -1026.07776543     A.U. after    1 cycles

      1  F    Isotropic =   120.1644   Anisotropy =   336.7433

      2  S    Isotropic =   237.7696   Anisotropy =   334.2289

      3  C    Isotropic =    50.2033   Anisotropy =    98.9374

      4  C    Isotropic =    62.7540   Anisotropy =   148.1758

      5  N    Isotropic =   -87.6646   Anisotropy =   591.8718

      6  C    Isotropic =    58.4491   Anisotropy =   138.4534

      7  C    Isotropic =    42.6112   Anisotropy =   117.5418

      8  O    Isotropic =   216.3116   Anisotropy =    97.3580

      9  C    Isotropic =   140.7337   Anisotropy =    63.7926

     10  N    Isotropic =    -2.3916   Anisotropy =   423.2177

     11  O    Isotropic =   119.1441   Anisotropy =    66.9286

     12  O    Isotropic =   105.9194   Anisotropy =    64.0493

     13  H    Isotropic =    23.3780   Anisotropy =     8.0358

     14  H    Isotropic =    23.7168   Anisotropy =     6.4340

     15  H    Isotropic =    28.2461   Anisotropy =     7.6068

     16  H    Isotropic =    28.2096   Anisotropy =     7.8979

     17  H    Isotropic =    28.1429   Anisotropy =     7.9006

 The electronic state is 1-A.
 Alpha  occ. eigenvalues --  -89.24189 -24.79179 -19.26675 -19.22502 -19.22356
 Alpha  occ. eigenvalues --  -14.42376 -14.41982 -10.34980 -10.31814 -10.29157
 Alpha  occ. eigenvalues --  -10.28829 -10.28203  -8.22081  -6.17015  -6.16676
 Alpha  occ. eigenvalues --   -6.16573  -1.28313  -1.14563  -1.14319  -1.06410
 Alpha  occ. eigenvalues --   -1.03916  -0.96814  -0.84305  -0.77530  -0.74285
 Alpha  occ. eigenvalues --   -0.68514  -0.67037  -0.60571  -0.58569  -0.55914
 Alpha  occ. eigenvalues --   -0.54856  -0.53894  -0.52141  -0.51578  -0.47293
 Alpha  occ. eigenvalues --   -0.47040  -0.45869  -0.45589  -0.44702  -0.40247
 Alpha  occ. eigenvalues --   -0.39482  -0.38835  -0.37618  -0.36979  -0.35650
 Alpha  occ. eigenvalues --   -0.35397  -0.34018  -0.29392  -0.28506
 Alpha virt. eigenvalues --   -0.08721  -0.04960   0.02808   0.06011   0.09287
 Alpha virt. eigenvalues --    0.10209   0.10398   0.11615   0.12923   0.14027
 Alpha virt. eigenvalues --    0.14995   0.15490   0.16672   0.21441   0.25074

 Mulliken charges:
               1
     1  F   -0.296310
     2  S    1.266658
     3  C   -0.028518
     4  C    0.008196
     5  N   -0.377414
     6  C   -0.004170
     7  C    0.557010
     8  O   -0.484201
     9  C   -0.293251
    10  N   -0.482687
    11  O   -0.475391
    12  O   -0.455634
    13  H    0.235991
    14  H    0.216451
    15  H    0.203395
    16  H    0.202861
    17  H    0.207013
 Sum of Mulliken charges =   0.00000

 Dipole moment (field-independent basis, Debye):
    X=              4.4404    Y=             -0.3291    Z=             -0.6357  Tot=              4.4977
 Quadrupole moment (field-independent basis, Debye-Ang):
   XX=            -74.8139   YY=            -73.8229   ZZ=            -74.3495
   XY=             -5.8383   XZ=              1.6161   YZ=              1.6095

 Summary of Natural Population Analysis:

                                       Natural Population
                Natural  -----------------------------------------------
    Atom  No    Charge         Core      Valence    Rydberg      Total
 -----------------------------------------------------------------------
      F    1   -0.49603      1.99997     7.48622    0.00984     9.49603
      S    2    2.42394      9.99875     3.37081    0.20650    13.57606
      C    3   -0.12465      1.99878     4.09093    0.03493     6.12465
      C    4   -0.03573      1.99902     4.01423    0.02248     6.03573
      N    5   -0.39356      1.99949     5.37078    0.02329     7.39356
      C    6   -0.01307      1.99916     3.99222    0.02169     6.01307
      C    7    0.52032      1.99903     3.45202    0.02863     5.47968
      O    8   -0.50222      1.99973     6.48958    0.01292     8.50222
      C    9   -0.35073      1.99941     4.33675    0.01457     6.35073
      N   10   -0.47844      1.99926     5.45405    0.02513     7.47844
      O   11   -0.90021      1.99988     6.87629    0.02403     8.90021
      O   12   -0.87751      1.99988     6.85317    0.02446     8.87751
      H   13    0.27076      0.00000     0.72806    0.00118     0.72924
      H   14    0.25238      0.00000     0.74628    0.00135     0.74762
      H   15    0.23893      0.00000     0.76061    0.00046     0.76107
      H   16    0.23179      0.00000     0.76704    0.00118     0.76821
      H   17    0.23404      0.00000     0.76480    0.00116     0.76596
 =======================================================================
   * Total *    0.00000     31.99236    65.55385    0.45379    98.00000

 Normal termination of Gaussian 16 at Fri Oct  4 20:04:12 2024.
