 Gaussian 16, Revision C.01,

 -------------------------------
 #p apfd/6-31G* opt freq=noraman
 -------------------------------

 -------
 ID-4008
 -------
 Symbolic Z-matrix:
 Charge =  0 Multiplicity = 1

 SCF Done:  E(RAPFD) =  -1010.03601948     A.U. after   15 cycles
 SCF Done:  E(RAPFD) =  -1010.04206269     A.U. after   13 cycles
 SCF Done:  E(RAPFD) =  -1010.04271487     A.U. after   11 cycles
 SCF Done:  E(RAPFD) =  -1010.04281186     A.U. after   11 cycles
 SCF Done:  E(RAPFD) =  -1010.04314324     A.U. after   13 cycles
 SCF Done:  E(RAPFD) =  -1009.99992098     A.U. after   15 cycles
 SCF Done:  E(RAPFD) =  -1010.04454268     A.U. after   13 cycles
 SCF Done:  E(RAPFD) =  -1010.04563238     A.U. after   15 cycles
 SCF Done:  E(RAPFD) =  -1010.04631813     A.U. after   12 cycles
 SCF Done:  E(RAPFD) =  -1010.04705167     A.U. after   12 cycles
 SCF Done:  E(RAPFD) =  -1010.04726704     A.U. after   12 cycles
 SCF Done:  E(RAPFD) =  -1010.04732492     A.U. after   12 cycles
 SCF Done:  E(RAPFD) =  -1010.04734435     A.U. after   10 cycles
 SCF Done:  E(RAPFD) =  -1010.04736272     A.U. after   10 cycles
 SCF Done:  E(RAPFD) =  -1010.04736308     A.U. after    8 cycles
 SCF Done:  E(RAPFD) =  -1010.04736310     A.U. after    7 cycles
 Optimization completed.
    -- Stationary point found.
 Normal termination of Gaussian 16 at Fri Oct  4 20:01:47 2024.

 -------------------------------------------------------------------
 #P Geom=AllCheck Guess=TCheck SCRF=Check GenChk RAPFD/6-31G(d) Freq
 -------------------------------------------------------------------

 Structure from the checkpoint file:  "ID-4008.chk"
 -------
 ID-4008
 -------
 Charge =  0 Multiplicity = 1

 SCF Done:  E(RAPFD) =  -1010.04736310     A.U. after    1 cycles

  Exact polarizability:     137.220       4.734      90.661       2.475      -1.616      51.128
 Approx polarizability:     187.855       3.661     163.658       4.175      -5.072      80.034

                      1                      2                      3
                      A                      A                      A
 Frequencies --     37.1637                65.1951               118.3486
 Red. masses --      6.3287                 5.2895                 4.5231
 Frc consts  --      0.0051                 0.0132                 0.0373
 IR Inten    --      0.1334                 0.1688                 6.5123

                      4                      5                      6
                      A                      A                      A
 Frequencies --    148.7038               202.9060               251.0252
 Red. masses --      6.8586                 3.7933                 4.4412
 Frc consts  --      0.0894                 0.0920                 0.1649
 IR Inten    --      0.7807                 1.1545                 3.7669

                      7                      8                      9
                      A                      A                      A
 Frequencies --    268.3309               281.7381               356.6478
 Red. masses --      1.4431                 5.4839                 8.3282
 Frc consts  --      0.0612                 0.2565                 0.6241
 IR Inten    --      0.1389                 0.3896                 2.0858

                     10                     11                     12
                      A                      A                      A
 Frequencies --    376.9929               426.8273               466.1440
 Red. masses --      6.6195                 3.6575                 7.6513
 Frc consts  --      0.5543                 0.3926                 0.9795
 IR Inten    --      1.3455                 0.7024                 6.8886

                     13                     14                     15
                      A                      A                      A
 Frequencies --    487.0956               499.2031               548.9188
 Red. masses --     10.3818                 6.2986                 3.2424
 Frc consts  --      1.4513                 0.9248                 0.5756
 IR Inten    --     15.4312                 8.8725                 5.1841

                     16                     17                     18
                      A                      A                      A
 Frequencies --    567.5072               630.8237               683.1000
 Red. masses --      8.8344                 8.2653                 9.0932
 Frc consts  --      1.6764                 1.9379                 2.5000
 IR Inten    --    136.0074                11.6974                36.0455

                     19                     20                     21
                      A                      A                      A
 Frequencies --    752.9105               812.8399               851.4362
 Red. masses --      5.4437                15.3951                 7.3733
 Frc consts  --      1.8182                 5.9930                 3.1493
 IR Inten    --      7.2415               185.6874                67.5203

                     22                     23                     24
                      A                      A                      A
 Frequencies --    866.4989               918.0147               991.4465
 Red. masses --      1.5135                 1.3778                 1.2950
 Frc consts  --      0.6695                 0.6841                 0.7500
 IR Inten    --     27.1166                 5.2233                 0.1138

                     25                     26                     27
                      A                      A                      A
 Frequencies --   1031.8363              1071.6661              1131.2663
 Red. masses --      3.4861                 5.4354                 1.2585
 Frc consts  --      2.1868                 3.6779                 0.9489
 IR Inten    --     11.8713                49.6905                 0.4772

                     28                     29                     30
                      A                      A                      A
 Frequencies --   1140.8444              1168.1970              1207.4610
 Red. masses --      2.4883                 1.4849                 1.4240
 Frc consts  --      1.9082                 1.1939                 1.2232
 IR Inten    --     24.1809                27.3482                 4.1050

                     31                     32                     33
                      A                      A                      A
 Frequencies --   1223.6331              1343.6004              1344.7968
 Red. masses --      8.1753                 1.4026                 3.4628
 Frc consts  --      7.2120                 1.4919                 3.6897
 IR Inten    --    237.1319                 2.8363               222.2222

                     34                     35                     36
                      A                      A                      A
 Frequencies --   1376.9133              1426.5540              1444.1718
 Red. masses --      8.8393                13.1520                 3.5634
 Frc consts  --      9.8737                15.7696                 4.3788
 IR Inten    --     34.8850               172.1246                62.9975

                     37                     38                     39
                      A                      A                      A
 Frequencies --   1481.7996              1519.4411              1529.9401
 Red. masses --      1.2722                 1.0518                 1.0638
 Frc consts  --      1.6458                 1.4308                 1.4671
 IR Inten    --     11.1327                 9.1734                30.6506

                     40                     41                     42
                      A                      A                      A
 Frequencies --   1540.5425              1636.7497              1665.2962
 Red. masses --      2.8769                 6.5809                 6.5447
 Frc consts  --      4.0227                10.3872                10.6936
 IR Inten    --    142.3162                23.7622                80.5870

                     43                     44                     45
                      A                      A                      A
 Frequencies --   3032.4627              3106.8775              3197.4716
 Red. masses --      1.0368                 1.1114                 1.1001
 Frc consts  --      5.6171                 6.3210                 6.6268
 IR Inten    --     39.2485                26.3203                16.0425

                     46                     47                     48
                      A                      A                      A
 Frequencies --   3231.3256              3239.2583              3262.1032
 Red. masses --      1.0904                 1.0907                 1.0951
 Frc consts  --      6.7083                 6.7432                 6.8660
 IR Inten    --     13.9977                 0.6289                 2.2109

 - Thermochemistry -
 -------------------
 Temperature   298.150 Kelvin.  Pressure   1.00000 Atm.
 Atom     1 has atomic number  9 and mass  18.99840

 Molecular mass:   191.00524 amu.
 Principal axes and moments of inertia in atomic units:
                           1         2         3
     Eigenvalues --   751.442074263.251824624.31367
           X            0.99988   0.01510   0.00322
           Y           -0.01507   0.99986  -0.00733
           Z           -0.00333   0.00728   0.99997
 This molecule is an asymmetric top.
 Rotational symmetry number  1.
 Warning -- assumption of classical behavior for rotation
           may cause significant error
 Rotational temperatures (Kelvin)      0.11526     0.02032     0.01873
 Rotational constants (GHZ):           2.40170     0.42333     0.39027
 Zero-point vibrational energy     328757.9 (Joules/Mol)
                                   78.57502 (Kcal/Mol)
 Warning -- explicit consideration of  16 degrees of freedom as
           vibrations may cause significant error
 Vibrational temperatures:     53.47    93.80   170.28   213.95   291.94
          (Kelvin)            361.17   386.07   405.36   513.14   542.41
                              614.11   670.68   700.82   718.24   789.77
                              816.52   907.61   982.83  1083.27  1169.50
                             1225.03  1246.70  1320.82  1426.47  1484.58
                             1541.89  1627.64  1641.42  1680.77  1737.27
                             1760.54  1933.14  1934.86  1981.07  2052.49
                             2077.84  2131.98  2186.14  2201.24  2216.50
                             2354.92  2395.99  4363.04  4470.10  4600.45
                             4649.16  4660.57  4693.44

 Zero-point correction=                           0.125217 (Hartree/Particle)
 Thermal correction to Energy=                    0.135919
 Thermal correction to Enthalpy=                  0.136863
 Thermal correction to Gibbs Free Energy=         0.087606
 Sum of electronic and zero-point Energies=          -1009.922146
 Sum of electronic and thermal Energies=             -1009.911444
 Sum of electronic and thermal Enthalpies=           -1009.910500
 Sum of electronic and thermal Free Energies=        -1009.959757

                     E (Thermal)             CV                S
                      KCal/Mol        Cal/Mol-Kelvin    Cal/Mol-Kelvin
 Total                   85.290             39.244            103.670
 Electronic               0.000              0.000              0.000
 Translational            0.889              2.981             41.647
 Rotational               0.889              2.981             31.072
 Vibrational             83.513             33.283             30.952
 Vibration     1          0.594              1.982              5.405
 Vibration     2          0.597              1.971              4.293
 Vibration     3          0.609              1.934              3.127
 Vibration     4          0.618              1.904              2.689
 Vibration     5          0.639              1.836              2.107
 Vibration     6          0.663              1.761              1.723
 Vibration     7          0.673              1.731              1.607
 Vibration     8          0.681              1.707              1.523
 Vibration     9          0.732              1.562              1.137
 Vibration    10          0.748              1.519              1.051
 Vibration    11          0.788              1.412              0.869
 Vibration    12          0.824              1.325              0.748
 Vibration    13          0.843              1.279              0.691
 Vibration    14          0.855              1.252              0.660
 Vibration    15          0.904              1.142              0.546
 Vibration    16          0.923              1.102              0.509

 Optimization completed.
    -- Stationary point found.
 Normal termination of Gaussian 16 at Fri Oct  4 20:03:39 2024.
 Gaussian 16:  ES64L-G16RevC.01  3-Jul-2019

 -------------------------------------------------------
 #p apfd/6-31G* volume NMR pop=NPA geom=check guess=read
 -------------------------------------------------------

 -------
 ID-4008
 -------
 Structure from the checkpoint file:  "ID-4008.chk"
 Charge =  0 Multiplicity = 1

                         Standard orientation:
 ---------------------------------------------------------------------
 Center     Atomic      Atomic             Coordinates (Angstroms)
 Number     Number       Type             X           Y           Z
 ---------------------------------------------------------------------
      1          9           0        2.495928   -0.651328   -1.357857
      2         16           0        2.248009   -0.070232    0.120151
      3          6           0        0.472117    0.102447    0.059332
      4          6           0       -0.076189    1.383499    0.034873
      5          6           0       -1.457648    1.473214    0.009983
      6          6           0       -2.217438    0.297391    0.005611
      7          8           0       -3.552138    0.450704   -0.019016
      8          6           0       -4.363231   -0.712510   -0.023655
      9          6           0       -1.543268   -0.937725    0.027498
     10          7           0       -0.218046   -1.023664    0.056561
     11          8           0        2.642134   -1.111790    1.035079
     12          8           0        2.843543    1.248071    0.139155
     13          1           0        0.560271    2.261694    0.037313
     14          1           0       -1.969606    2.430823   -0.006204
     15          1           0       -5.392511   -0.354088   -0.043536
     16          1           0       -4.203463   -1.312775    0.880261
     17          1           0       -4.173747   -1.326540   -0.912480
     18          1           0       -2.080494   -1.881580    0.023426
 ---------------------------------------------------------------------

 SCF Done:  E(RAPFD) =  -1010.04736310     A.U. after    1 cycles

      1  F    Isotropic =   121.0321   Anisotropy =   335.6795

      2  S    Isotropic =   234.8659   Anisotropy =   327.2716

      3  C    Isotropic =    51.0697   Anisotropy =    96.7889

      4  C    Isotropic =    73.2487   Anisotropy =   164.8710

      5  C    Isotropic =    73.6419   Anisotropy =   154.7820

      6  C    Isotropic =    44.0329   Anisotropy =   136.1369

      7  O    Isotropic =   237.0927   Anisotropy =   106.0544

      8  C    Isotropic =   140.3061   Anisotropy =    67.0738

      9  C    Isotropic =    66.8023   Anisotropy =   136.8830

     10  N    Isotropic =   -54.4518   Anisotropy =   527.2952

     11  O    Isotropic =   110.6019   Anisotropy =    71.1159

     12  O    Isotropic =   121.9202   Anisotropy =    69.2242

     13  H    Isotropic =    24.2240   Anisotropy =     8.0266

     14  H    Isotropic =    24.9473   Anisotropy =     5.7530

     15  H    Isotropic =    28.0092   Anisotropy =     8.0105

     16  H    Isotropic =    28.4014   Anisotropy =     8.0520

     17  H    Isotropic =    28.4021   Anisotropy =     8.0326

     18  H    Isotropic =    24.0023   Anisotropy =     7.5182

 The electronic state is 1-A.
 Alpha  occ. eigenvalues --  -89.22768 -24.77760 -19.26332 -19.21140 -19.20942
 Alpha  occ. eigenvalues --  -14.40967 -10.31808 -10.29843 -10.29118 -10.27946
 Alpha  occ. eigenvalues --  -10.26397 -10.26017  -8.20666  -6.15603  -6.15268
 Alpha  occ. eigenvalues --   -6.15147  -1.26866  -1.13126  -1.13066  -1.04983
 Alpha  occ. eigenvalues --   -1.00595  -0.85884  -0.82759  -0.76477  -0.71359
 Alpha  occ. eigenvalues --   -0.67950  -0.64566  -0.59410  -0.57219  -0.55809
 Alpha  occ. eigenvalues --   -0.53231  -0.51474  -0.50365  -0.49555  -0.48197
 Alpha  occ. eigenvalues --   -0.46668  -0.45401  -0.44192  -0.43912  -0.42705
 Alpha  occ. eigenvalues --   -0.39381  -0.39149  -0.38096  -0.35352  -0.34522
 Alpha  occ. eigenvalues --   -0.32892  -0.32223  -0.29852  -0.27481
 Alpha virt. eigenvalues --   -0.06142  -0.04373   0.04100   0.07152   0.08544
 Alpha virt. eigenvalues --    0.09012   0.10646   0.11889   0.13421   0.14023
 Alpha virt. eigenvalues --    0.15082   0.15390   0.15726   0.18174   0.22692

 Mulliken charges:
               1
     1  F   -0.299086
     2  S    1.258628
     3  C   -0.037914
     4  C   -0.163907
     5  C   -0.168730
     6  C    0.360948
     7  O   -0.497347
     8  C   -0.301234
     9  C   -0.029656
    10  N   -0.411279
    11  O   -0.457002
    12  O   -0.489512
    13  H    0.235425
    14  H    0.210536
    15  H    0.212288
    16  H    0.190603
    17  H    0.190014
    18  H    0.197225
 Sum of Mulliken charges =   0.00000

 Dipole moment (field-independent basis, Debye):
    X=             -7.2126    Y=              0.7826    Z=             -0.6865  Tot=              7.2874
 Quadrupole moment (field-independent basis, Debye-Ang):
   XX=            -70.2165   YY=            -72.6884   ZZ=            -76.1545
   XY=              5.8235   XZ=             -2.2103   YZ=              1.2992

 Summary of Natural Population Analysis:

                                       Natural Population
                Natural  -----------------------------------------------
    Atom  No    Charge         Core      Valence    Rydberg      Total
 -----------------------------------------------------------------------
      F    1   -0.49889      1.99997     7.48922    0.00971     9.49889
      S    2    2.42324      9.99874     3.37228    0.20574    13.57676
      C    3   -0.12549      1.99879     4.09099    0.03572     6.12549
      C    4   -0.24259      1.99898     4.22875    0.01486     6.24259
      C    5   -0.24341      1.99904     4.22924    0.01512     6.24341
      C    6    0.30432      1.99884     3.67463    0.02220     5.69568
      O    7   -0.50103      1.99973     6.48852    0.01278     8.50103
      C    8   -0.34781      1.99942     4.33386    0.01453     6.34781
      C    9   -0.06123      1.99912     4.04035    0.02177     6.06123
      N   10   -0.40176      1.99936     5.37700    0.02541     7.40176
      O   11   -0.88010      1.99988     6.85583    0.02439     8.88010
      O   12   -0.91245      1.99988     6.88896    0.02361     8.91245
      H   13    0.28749      0.00000     0.71145    0.00105     0.71251
      H   14    0.27215      0.00000     0.72685    0.00100     0.72785
      H   15    0.24555      0.00000     0.75401    0.00044     0.75445
      H   16    0.21925      0.00000     0.77933    0.00142     0.78075
      H   17    0.21891      0.00000     0.77966    0.00142     0.78109
      H   18    0.24384      0.00000     0.75514    0.00102     0.75616
 =======================================================================
   * Total *   -0.00000     31.99174    65.57606    0.43220    98.00000

 Normal termination of Gaussian 16 at Fri Oct  4 20:03:54 2024.
