 Gaussian 16, Revision C.01,

 -------------------------------
 #p apfd/6-31G* opt freq=noraman
 -------------------------------

 -------
 ID-4009
 -------
 Symbolic Z-matrix:
 Charge =  0 Multiplicity = 1

 SCF Done:  E(RAPFD) =  -1066.33732780     A.U. after   15 cycles
 SCF Done:  E(RAPFD) =  -1066.34423736     A.U. after   13 cycles
 SCF Done:  E(RAPFD) =  -1066.34496966     A.U. after   12 cycles
 SCF Done:  E(RAPFD) =  -1066.34502076     A.U. after   10 cycles
 SCF Done:  E(RAPFD) =  -1066.34502906     A.U. after    9 cycles
 SCF Done:  E(RAPFD) =  -1066.34502984     A.U. after    8 cycles
 Optimization completed.
    -- Stationary point found.
 Normal termination of Gaussian 16 at Fri Oct  4 20:02:05 2024.

 -------------------------------------------------------------------
 #P Geom=AllCheck Guess=TCheck SCRF=Check GenChk RAPFD/6-31G(d) Freq
 -------------------------------------------------------------------

 Structure from the checkpoint file:  "ID-4009.chk"
 -------
 ID-4009
 -------
 Charge =  0 Multiplicity = 1

 SCF Done:  E(RAPFD) =  -1066.34502984     A.U. after    1 cycles

  Exact polarizability:     134.539      14.233     145.144       0.005       0.030      65.927
 Approx polarizability:     196.411      29.885     239.295      -0.002       0.041     110.475

 ******    1 imaginary frequencies (negative Signs) ******

                      1                      2                      3
                      A                      A                      A
 Frequencies --    -12.5321                54.1957                68.4429
 Red. masses --     12.0956                 1.1692                 3.4370
 Frc consts  --      0.0011                 0.0020                 0.0095
 IR Inten    --      0.2842                 0.0967                 1.7460

                      4                      5                      6
                      A                      A                      A
 Frequencies --     87.2096               114.8640               117.2906
 Red. masses --      1.0302                 6.1237                14.1267
 Frc consts  --      0.0046                 0.0476                 0.1145
 IR Inten    --      0.6368                 0.2126                 1.1332

                      7                      8                      9
                      A                      A                      A
 Frequencies --    158.4692               197.8174               243.4039
 Red. masses --      6.1748                 3.2996                 6.1116
 Frc consts  --      0.0914                 0.0761                 0.2133
 IR Inten    --      3.6250                 0.1313                 4.1851

                     10                     11                     12
                      A                      A                      A
 Frequencies --    249.4155               277.6206               283.1201
 Red. masses --      4.3176                 8.5422                 8.7143
 Frc consts  --      0.1582                 0.3879                 0.4115
 IR Inten    --      5.5225                 1.7045                 0.1145

                     13                     14                     15
                      A                      A                      A
 Frequencies --    310.9777               427.1228               429.3550
 Red. masses --      4.1772                14.0871                 4.7866
 Frc consts  --      0.2380                 1.5142                 0.5199
 IR Inten    --      1.0891                13.0963                 5.2797

                     16                     17                     18
                      A                      A                      A
 Frequencies --    438.0793               485.8331               494.4866
 Red. masses --      6.6696                13.6331                 4.9950
 Frc consts  --      0.7541                 1.8959                 0.7196
 IR Inten    --      3.3592                 7.3161                 5.3552

                     19                     20                     21
                      A                      A                      A
 Frequencies --    541.4014               591.3247               604.1288
 Red. masses --      5.3261                 6.6667                12.4956
 Frc consts  --      0.9198                 1.3734                 2.6870
 IR Inten    --     24.5981                 0.7322               106.8031

                     22                     23                     24
                      A                      A                      A
 Frequencies --    623.9949               630.6476               725.5887
 Red. masses --      4.1127                 6.1607                 6.4719
 Frc consts  --      0.9435                 1.4436                 2.0075
 IR Inten    --      0.2153                 0.4694                 2.8154

                     25                     26                     27
                      A                      A                      A
 Frequencies --    755.4515               822.0583               899.6639
 Red. masses --      6.1703                15.1735                 1.2571
 Frc consts  --      2.0748                 6.0415                 0.5995
 IR Inten    --      0.0696               148.5493                 5.9184

                     28                     29                     30
                      A                      A                      A
 Frequencies --    908.5143               991.8110              1034.2556
 Red. masses --      6.9635                 5.3325                 1.5418
 Frc consts  --      3.3864                 3.0906                 0.9717
 IR Inten    --     50.8881                 3.0269                 0.7419

                     31                     32                     33
                      A                      A                      A
 Frequencies --   1054.2463              1069.3695              1071.4103
 Red. masses --      1.4699                 1.6103                 1.5638
 Frc consts  --      0.9626                 1.0850                 1.0576
 IR Inten    --      6.4879                12.5755                 0.0122

                     34                     35                     36
                      A                      A                      A
 Frequencies --   1175.9158              1212.9652              1264.2818
 Red. masses --      4.6087                 8.9115                 1.7349
 Frc consts  --      3.7547                 7.7250                 1.6338
 IR Inten    --     24.1335               103.8564                16.9413

                     37                     38                     39
                      A                      A                      A
 Frequencies --   1325.4755              1357.3466              1416.1858
 Red. masses --      6.5247                 6.5741                 3.9352
 Frc consts  --      6.7538                 7.1362                 4.6500
 IR Inten    --      4.1832                 0.3812                22.1257

                     40                     41                     42
                      A                      A                      A
 Frequencies --   1431.3185              1435.6647              1440.0513
 Red. masses --     20.6775                 1.2767                 1.3023
 Frc consts  --     24.9586                 1.5504                 1.5912
 IR Inten    --    206.3888                13.7224                 2.0751

                     43                     44                     45
                      A                      A                      A
 Frequencies --   1497.3238              1501.7067              1503.1384
 Red. masses --      1.0445                 1.0406                 1.5644
 Frc consts  --      1.3797                 1.3827                 2.0826
 IR Inten    --      6.9642                12.6493                 0.9531

                     46                     47                     48
                      A                      A                      A
 Frequencies --   1514.4106              1521.9147              1606.1757
 Red. masses --      1.2750                 1.9647                 6.4032
 Frc consts  --      1.7228                 2.6811                 9.7327
 IR Inten    --     56.1957                28.6814                30.3393

                     49                     50                     51
                      A                      A                      A
 Frequencies --   1672.6126              2374.4766              3075.0103
 Red. masses --      7.4472                12.6738                 1.0375
 Frc consts  --     12.2754                42.1009                 5.7803
 IR Inten    --    129.4793                 7.5157                 2.4550

                     52                     53                     54
                      A                      A                      A
 Frequencies --   3078.3727              3142.5161              3149.4989
 Red. masses --      1.0369                 1.1003                 1.1005
 Frc consts  --      5.7895                 6.4020                 6.4319
 IR Inten    --      3.8696                 1.4572                 2.6871

                     55                     56                     57
                      A                      A                      A
 Frequencies --   3176.6372              3176.7357              3224.0510
 Red. masses --      1.1033                 1.1033                 1.0920
 Frc consts  --      6.5595                 6.5602                 6.6880
 IR Inten    --      0.4499                18.9567                 5.4270

 - Thermochemistry -
 -------------------
 Temperature   298.150 Kelvin.  Pressure   1.00000 Atm.
 Atom     1 has atomic number  6 and mass  12.00000

 Molecular mass:   214.02123 amu.
 Principal axes and moments of inertia in atomic units:
                           1         2         3
     Eigenvalues --  2198.611463022.174654832.15789
           X            0.99940   0.03466   0.00001
           Y           -0.03466   0.99940   0.00003
           Z           -0.00001  -0.00004   1.00000
 This molecule is an asymmetric top.
 Rotational symmetry number  1.
 Warning -- assumption of classical behavior for rotation
           may cause significant error
 Rotational temperatures (Kelvin)      0.03939     0.02866     0.01792
 Rotational constants (GHZ):           0.82085     0.59717     0.37349
    1 imaginary frequencies ignored.
 Zero-point vibrational energy     383016.5 (Joules/Mol)
                                   91.54314 (Kcal/Mol)
 Warning -- explicit consideration of  20 degrees of freedom as
           vibrations may cause significant error
 Vibrational temperatures:     77.98    98.47   125.48   165.26   168.76
          (Kelvin)            228.00   284.62   350.20   358.85   399.43
                              407.35   447.43   614.53   617.75   630.30
                              699.01   711.46   778.96   850.78   869.21
                              897.79   907.36  1043.96  1086.93  1182.76
                             1294.42  1307.15  1426.99  1488.06  1516.83
                             1538.58  1541.52  1691.88  1745.19  1819.02
                             1907.06  1952.92  2037.58  2059.35  2065.60
                             2071.91  2154.31  2160.62  2162.68  2178.90
                             2189.70  2310.93  2406.52  3416.34  4424.25
                             4429.09  4521.38  4531.43  4570.47  4570.61
                             4638.69

 Zero-point correction=                           0.145883 (Hartree/Particle)
 Thermal correction to Energy=                    0.158743
 Thermal correction to Enthalpy=                  0.159688
 Thermal correction to Gibbs Free Energy=         0.105867
 Sum of electronic and zero-point Energies=          -1066.199147
 Sum of electronic and thermal Energies=             -1066.186286
 Sum of electronic and thermal Enthalpies=           -1066.185342
 Sum of electronic and thermal Free Energies=        -1066.239163

                     E (Thermal)             CV                S
                      KCal/Mol        Cal/Mol-Kelvin    Cal/Mol-Kelvin
 Total                   99.613             46.470            113.274
 Electronic               0.000              0.000              0.000
 Translational            0.889              2.981             41.986
 Rotational               0.889              2.981             31.840
 Vibrational             97.836             40.508             39.448
 Vibration     1          0.596              1.976              4.658
 Vibration     2          0.598              1.969              4.198
 Vibration     3          0.601              1.958              3.722
 Vibration     4          0.608              1.937              3.185
 Vibration     5          0.608              1.935              3.145
 Vibration     6          0.621              1.893              2.568
 Vibration     7          0.637              1.843              2.153
 Vibration     8          0.659              1.774              1.778
 Vibration     9          0.662              1.764              1.735
 Vibration    10          0.679              1.715              1.548
 Vibration    11          0.682              1.705              1.515
 Vibration    12          0.700              1.653              1.357
 Vibration    13          0.789              1.411              0.868
 Vibration    14          0.791              1.406              0.861
 Vibration    15          0.798              1.387              0.833
 Vibration    16          0.842              1.281              0.695
 Vibration    17          0.850              1.262              0.672
 Vibration    18          0.896              1.159              0.562
 Vibration    19          0.949              1.050              0.465
 Vibration    20          0.963              1.023              0.443

                           ! Non-Optimized Parameters !
 Normal termination of Gaussian 16 at Fri Oct  4 20:03:52 2024.
 Gaussian 16:  ES64L-G16RevC.01  3-Jul-2019

 -------------------------------------------------------
 #p apfd/6-31G* volume NMR pop=NPA geom=check guess=read
 -------------------------------------------------------

 -------
 ID-4009
 -------
 Structure from the checkpoint file:  "ID-4009.chk"
 Charge =  0 Multiplicity = 1

                         Standard orientation:
 ---------------------------------------------------------------------
 Center     Atomic      Atomic             Coordinates (Angstroms)
 Number     Number       Type             X           Y           Z
 ---------------------------------------------------------------------
      1          6           0       -2.492430   -2.807021   -0.000821
      2          6           0       -1.834769   -1.462367    0.000663
      3          6           0       -2.566537   -0.273538    0.000780
      4          6           0       -1.924740    0.961931    0.000311
      5          6           0       -2.683531    2.252900    0.000093
      6          6           0       -0.516383    0.953966   -0.000086
      7          6           0        0.201212    2.187222   -0.000494
      8          7           0        0.732913    3.220308   -0.000597
      9          6           0        0.117863   -0.295599    0.000080
     10         16           0        1.926648   -0.320223    0.000013
     11          9           0        2.147732   -1.898165    0.000677
     12          8           0        2.410402    0.172433   -1.266492
     13          8           0        2.410415    0.173526    1.266094
     14          7           0       -0.492916   -1.457053    0.000440
     15          1           0       -3.582355   -2.728517    0.018367
     16          1           0       -2.163206   -3.387781    0.867595
     17          1           0       -2.194457   -3.370211   -0.892113
     18          1           0       -3.652467   -0.311777    0.001300
     19          1           0       -3.762315    2.079817    0.003089
     20          1           0       -2.428148    2.853413   -0.880530
     21          1           0       -2.423628    2.856690    0.877107
 ---------------------------------------------------------------------

 SCF Done:  E(RAPFD) =  -1066.34502984     A.U. after    2 cycles

      1  C    Isotropic =   168.7529   Anisotropy =    36.8853

      2  C    Isotropic =    38.3296   Anisotropy =   169.3092

      3  C    Isotropic =    71.8124   Anisotropy =   133.6475

      4  C    Isotropic =    43.4400   Anisotropy =   207.2795

      5  C    Isotropic =   171.7526   Anisotropy =    31.1111

      6  C    Isotropic =    91.6969   Anisotropy =   119.8475

      7  C    Isotropic =    89.2094   Anisotropy =   299.7152

      8  N    Isotropic =   -47.1702   Anisotropy =   386.1708

      9  C    Isotropic =    39.3074   Anisotropy =   106.9461

     10  S    Isotropic =   238.2436   Anisotropy =   310.1266

     11  F    Isotropic =   140.1641   Anisotropy =   317.3608

     12  O    Isotropic =    93.1455   Anisotropy =    56.3587

     13  O    Isotropic =    93.1366   Anisotropy =    56.3164

     14  N    Isotropic =   -34.0505   Anisotropy =   475.1714

     15  H    Isotropic =    30.0736   Anisotropy =     6.9998

     16  H    Isotropic =    29.3913   Anisotropy =     7.6209

     17  H    Isotropic =    29.3915   Anisotropy =     7.6370

     18  H    Isotropic =    25.0147   Anisotropy =     8.4820

     19  H    Isotropic =    30.0831   Anisotropy =     8.2591

     20  H    Isotropic =    29.3676   Anisotropy =     7.6007

     21  H    Isotropic =    29.3649   Anisotropy =     7.5828

 The electronic state is 1-A.
 Alpha  occ. eigenvalues --  -89.24211 -24.79518 -19.22232 -19.22231 -14.41583
 Alpha  occ. eigenvalues --  -14.39434 -10.32814 -10.30546 -10.30094 -10.29531
 Alpha  occ. eigenvalues --  -10.27440 -10.26488 -10.24583 -10.23647  -8.22068
 Alpha  occ. eigenvalues --   -6.17020  -6.16649  -6.16567  -1.28806  -1.14361
 Alpha  occ. eigenvalues --   -1.06190  -1.02445  -0.94600  -0.89295  -0.86076
 Alpha  occ. eigenvalues --   -0.78559  -0.75727  -0.74574  -0.66719  -0.65444
 Alpha  occ. eigenvalues --   -0.60509  -0.59074  -0.56114  -0.53901  -0.52164
 Alpha  occ. eigenvalues --   -0.49520  -0.49147  -0.46593  -0.46308  -0.45650
 Alpha  occ. eigenvalues --   -0.45281  -0.44347  -0.43266  -0.43160  -0.41644
 Alpha  occ. eigenvalues --   -0.39982  -0.39026  -0.38707  -0.36721  -0.36284
 Alpha  occ. eigenvalues --   -0.36243  -0.34093  -0.32556  -0.30860  -0.29890
 Alpha virt. eigenvalues --   -0.08623  -0.06977   0.00061   0.02215   0.04713
 Alpha virt. eigenvalues --    0.05765   0.08005   0.08880   0.10771   0.10939
 Alpha virt. eigenvalues --    0.11530   0.14111   0.15896   0.16663   0.16791

 Mulliken charges:
               1
     1  C   -0.577401
     2  C    0.309632
     3  C   -0.261120
     4  C    0.208719
     5  C   -0.604871
     6  C    0.071971
     7  C    0.257874
     8  N   -0.465913
     9  C   -0.015566
    10  S    1.288394
    11  F   -0.274445
    12  O   -0.466799
    13  O   -0.466806
    14  N   -0.473748
    15  H    0.188824
    16  H    0.219190
    17  H    0.219047
    18  H    0.191285
    19  H    0.199426
    20  H    0.226150
    21  H    0.226156
 Sum of Mulliken charges =  -0.00000

 Dipole moment (field-independent basis, Debye):
    X=             -7.9906    Y=             -2.2687    Z=             -0.0036  Tot=              8.3064
 Quadrupole moment (field-independent basis, Debye-Ang):
   XX=            -80.0747   YY=            -89.5901   ZZ=            -88.9344
   XY=             -4.2653   XZ=              0.0119   YZ=              0.0107

 Summary of Natural Population Analysis:

                                       Natural Population
                Natural  -----------------------------------------------
    Atom  No    Charge         Core      Valence    Rydberg      Total
 -----------------------------------------------------------------------
      C    1   -0.73706      1.99936     4.72898    0.00872     6.73706
      C    2    0.25338      1.99910     3.72533    0.02219     5.74662
      C    3   -0.25998      1.99893     4.24973    0.01132     6.25998
      C    4    0.06664      1.99903     3.91980    0.01453     5.93336
      C    5   -0.73378      1.99936     4.72652    0.00790     6.73378
      C    6   -0.20001      1.99865     4.18738    0.01399     6.20001
      C    7    0.24910      1.99939     3.71722    0.03428     5.75090
      N    8   -0.24600      1.99965     5.22537    0.02098     7.24600
      C    9   -0.01047      1.99875     3.97463    0.03709     6.01047
      S   10    2.41870      9.99880     3.37492    0.20758    13.58130
      F   11   -0.48286      1.99997     7.47291    0.00999     9.48286
      O   12   -0.87820      1.99988     6.85382    0.02450     8.87820
      O   13   -0.87821      1.99988     6.85382    0.02450     8.87821
      N   14   -0.44101      1.99929     5.41736    0.02436     7.44101
      H   15    0.25054      0.00000     0.74891    0.00055     0.74946
      H   16    0.27530      0.00000     0.72386    0.00084     0.72470
      H   17    0.27516      0.00000     0.72401    0.00083     0.72484
      H   18    0.26100      0.00000     0.73807    0.00093     0.73900
      H   19    0.25974      0.00000     0.73962    0.00064     0.74026
      H   20    0.27901      0.00000     0.72027    0.00072     0.72099
      H   21    0.27900      0.00000     0.72028    0.00072     0.72100
 =======================================================================
   * Total *   -0.00000     35.99003    73.54280    0.46717   110.00000

 Normal termination of Gaussian 16 at Fri Oct  4 20:04:14 2024.
