 Gaussian 16, Revision A.03,

 --------------------------------
 # opt=CalcFc APFD/6-31G* scf=xqc
 --------------------------------

 ----------------------------------
 BPDMJOYLYBUPSI-UHFFFAOYSA-N_conf_0
 ----------------------------------
 Symbolic Z-matrix:
 Charge =  0 Multiplicity = 1

 SCF Done:  E(RAPFD) =  -990.207399203     A.U. after   15 cycles
 SCF Done:  E(RAPFD) =  -990.214778069     A.U. after   15 cycles
 SCF Done:  E(RAPFD) =  -990.214917273     A.U. after   14 cycles
 SCF Done:  E(RAPFD) =  -990.215163310     A.U. after   13 cycles
 SCF Done:  E(RAPFD) =  -990.215250266     A.U. after   11 cycles
 SCF Done:  E(RAPFD) =  -990.214438595     A.U. after   12 cycles
 SCF Done:  E(RAPFD) =  -990.215428654     A.U. after   12 cycles
 SCF Done:  E(RAPFD) =  -990.215641465     A.U. after   12 cycles
 SCF Done:  E(RAPFD) =  -990.215853309     A.U. after   14 cycles
 SCF Done:  E(RAPFD) =  -990.215923919     A.U. after   12 cycles
 SCF Done:  E(RAPFD) =  -990.216032406     A.U. after   11 cycles
 SCF Done:  E(RAPFD) =  -990.216033256     A.U. after    8 cycles
 SCF Done:  E(RAPFD) =  -990.216033859     A.U. after    9 cycles
 SCF Done:  E(RAPFD) =  -990.216034254     A.U. after    8 cycles
 SCF Done:  E(RAPFD) =  -990.216034559     A.U. after    8 cycles
 SCF Done:  E(RAPFD) =  -990.216034896     A.U. after    9 cycles
 SCF Done:  E(RAPFD) =  -990.216035033     A.U. after    8 cycles
 SCF Done:  E(RAPFD) =  -990.216035041     A.U. after    7 cycles
 Optimization completed.
    -- Stationary point found.
 Normal termination of Gaussian 16 at Sun Jan 28 15:21:19 2024.

 ----------------------------------------------------------------------
 # freq APFD/6-31G* volume NMR pop=NPA density=current Geom=AllCheck Gu
 ess=Read
 ----------------------------------------------------------------------

 Structure from the checkpoint file:  "BPDMJOYLYBUPSI-UHFFFAOYSA-N_conf_0_1.chk"
 ----------------------------------
 BPDMJOYLYBUPSI-UHFFFAOYSA-N_conf_0
 ----------------------------------
 Charge =  0 Multiplicity = 1

 SCF Done:  E(RAPFD) =  -990.216035041     A.U. after    1 cycles

      1  O    Isotropic =   118.4300   Anisotropy =    72.2886

      2  S    Isotropic =   236.5386   Anisotropy =   338.0093

      3  C    Isotropic =    33.1412   Anisotropy =    88.6579

      4  N    Isotropic =   -19.8381   Anisotropy =   448.5881

      5  C    Isotropic =    29.4292   Anisotropy =   187.6821

      6  C    Isotropic =   169.2873   Anisotropy =    36.4688

      7  C    Isotropic =    75.3866   Anisotropy =   132.2038

      8  C    Isotropic =    30.0656   Anisotropy =   186.5230

      9  C    Isotropic =   169.2096   Anisotropy =    36.5257

     10  N    Isotropic =   -19.8095   Anisotropy =   452.3092

     11  F    Isotropic =   130.3355   Anisotropy =   332.2171

     12  O    Isotropic =   102.8479   Anisotropy =    63.1040

     13  H    Isotropic =    29.4392   Anisotropy =     7.6086

     14  H    Isotropic =    29.3914   Anisotropy =     7.5514

     15  H    Isotropic =    30.1279   Anisotropy =     6.9296

     16  H    Isotropic =    25.1781   Anisotropy =     8.4822

     17  H    Isotropic =    29.4395   Anisotropy =     7.6366

     18  H    Isotropic =    30.1343   Anisotropy =     6.9208

     19  H    Isotropic =    29.3897   Anisotropy =     7.5728

  Exact polarizability: 115.774  -0.688 110.452   1.853   1.840  58.563
 Approx polarizability: 161.552  -1.090 177.300   3.078   6.365  94.103

                      1                      2                      3
                      A                      A                      A
 Frequencies --     18.2857                55.1221                60.7593
 Red. masses --      8.7140                 1.0298                 1.0298
 Frc consts  --      0.0017                 0.0018                 0.0022
 IR Inten    --      0.2002                 0.6673                 0.5332

                      4                      5                      6
                      A                      A                      A
 Frequencies --    103.2973               139.3093               175.3525
 Red. masses --      7.2387                 6.6038                 2.9992
 Frc consts  --      0.0455                 0.0755                 0.0543
 IR Inten    --      0.5673                 0.0183                 0.0132

                      7                      8                      9
                      A                      A                      A
 Frequencies --    212.4749               248.0276               276.5171
 Red. masses --      5.1854                 3.9179                 8.2762
 Frc consts  --      0.1379                 0.1420                 0.3728
 IR Inten    --      0.0156                 4.2570                 3.1046

                     10                     11                     12
                      A                      A                      A
 Frequencies --    287.6108               329.1149               426.6187
 Red. masses --      7.1580                 4.8992                 7.2386
 Frc consts  --      0.3489                 0.3127                 0.7762
 IR Inten    --      0.3687                 0.9948                 9.4235

                     13                     14                     15
                      A                      A                      A
 Frequencies --    457.8627               502.5235               548.8462
 Red. masses --      8.2117                 5.9813                 6.2971
 Frc consts  --      1.0143                 0.8899                 1.1176
 IR Inten    --     14.6225                 1.3280                15.2072

                     16                     17                     18
                      A                      A                      A
 Frequencies --    562.7870               565.6425               610.6864
 Red. masses --      3.4849                 5.0691                10.5278
 Frc consts  --      0.6503                 0.9556                 2.3133
 IR Inten    --      1.9157                36.1863               108.5764

                     19                     20                     21
                      A                      A                      A
 Frequencies --    630.5538               791.0252               813.2152
 Red. masses --      4.4219                 6.1447                16.8776
 Frc consts  --      1.0359                 2.2653                 6.5761
 IR Inten    --     15.0031                15.8465               168.4167

                     22                     23                     24
                      A                      A                      A
 Frequencies --    889.9764               908.4301               985.7703
 Red. masses --      1.2401                 5.1948                 4.7845
 Frc consts  --      0.5787                 2.5258                 2.7393
 IR Inten    --      4.7031                18.2972                 5.7379

                     25                     26                     27
                      A                      A                      A
 Frequencies --    997.2619              1036.4881              1047.3024
 Red. masses --      7.0932                 1.6966                 1.4487
 Frc consts  --      4.1563                 1.0739                 0.9362
 IR Inten    --      5.9088                 2.2957                 4.4214

                     28                     29                     30
                      A                      A                      A
 Frequencies --   1069.4776              1072.9670              1210.8350
 Red. masses --      1.6797                 1.6103                13.7047
 Frc consts  --      1.1319                 1.0923                11.8383
 IR Inten    --     16.8592                 0.0177               195.9336

                     31                     32                     33
                      A                      A                      A
 Frequencies --   1219.1725              1313.7803              1329.7783
 Red. masses --      1.4660                 6.6345                 7.2109
 Frc consts  --      1.2839                 6.7469                 7.5128
 IR Inten    --     13.6750                 2.4293                 7.4345

                     34                     35                     36
                      A                      A                      A
 Frequencies --   1395.2605              1430.4433              1436.4352
 Red. masses --      2.7898                 1.2539                15.3546
 Frc consts  --      3.1998                 1.5117                18.6664
 IR Inten    --     20.6043                31.8414               182.3660

                     37                     38                     39
                      A                      A                      A
 Frequencies --   1440.6378              1496.4866              1497.1769
 Red. masses --      1.5176                 1.0427                 1.0444
 Frc consts  --      1.8557                 1.3757                 1.3793
 IR Inten    --      1.0499                 1.4481                15.5988

                     40                     41                     42
                      A                      A                      A
 Frequencies --   1503.1330              1511.9717              1517.2697
 Red. masses --      1.4785                 1.2640                 2.1640
 Frc consts  --      1.9681                 1.7024                 2.9351
 IR Inten    --      2.3423                74.4116                34.4414

                     43                     44                     45
                      A                      A                      A
 Frequencies --   1609.3627              1667.8050              3079.3815
 Red. masses --      6.4863                 7.2745                 1.0367
 Frc consts  --      9.8982                11.9219                 5.7922
 IR Inten    --     95.5835               238.8995                 2.9498

                     46                     47                     48
                      A                      A                      A
 Frequencies --   3079.5429              3151.8169              3152.1921
 Red. masses --      1.0367                 1.1004                 1.1004
 Frc consts  --      5.7929                 6.4407                 6.4421
 IR Inten    --      3.1287                 1.5209                 2.7737

                     49                     50                     51
                      A                      A                      A
 Frequencies --   3177.6061              3177.7696              3233.6871
 Red. masses --      1.1039                 1.1039                 1.0928
 Frc consts  --      6.5674                 6.5679                 6.7328
 IR Inten    --      2.2719                17.9913                 4.2946

 - Thermochemistry -
 -------------------
 Temperature   298.150 Kelvin.  Pressure   1.00000 Atm.
 Atom     1 has atomic number  8 and mass  15.99491

 Molecular mass:   190.02123 amu.
 Principal axes and moments of inertia in atomic units:
                           1         2         3
     Eigenvalues --  1385.891702879.914813868.85049
           X            0.99999  -0.00326   0.00348
           Y            0.00324   0.99999   0.00336
           Z           -0.00349  -0.00335   0.99999
 This molecule is an asymmetric top.
 Rotational symmetry number  1.
 Warning -- assumption of classical behavior for rotation
           may cause significant error
 Rotational temperatures (Kelvin)      0.06250     0.03008     0.02239
 Rotational constants (GHZ):           1.30222     0.62666     0.46648
 Zero-point vibrational energy     355619.0 (Joules/Mol)
                                   84.99498 (Kcal/Mol)
 Warning -- explicit consideration of  18 degrees of freedom as
           vibrations may cause significant error
 Vibrational temperatures:     26.31    79.31    87.42   148.62   200.43
          (Kelvin)            252.29   305.70   356.86   397.85   413.81
                              473.52   613.81   658.76   723.02   789.67
                              809.72   813.83   878.64   907.23  1138.11
                             1170.04  1280.48  1307.03  1418.30  1434.84
                             1491.28  1506.83  1538.74  1543.76  1742.12
                             1754.12  1890.24  1913.25  2007.47  2058.09
                             2066.71  2072.76  2153.11  2154.10  2162.67
                             2175.39  2183.01  2315.51  2399.60  4430.54
                             4430.78  4534.76  4535.30  4571.87  4572.10
                             4652.55

 Zero-point correction=                           0.135448 (Hartree/Particle)
 Thermal correction to Energy=                    0.147294
 Thermal correction to Enthalpy=                  0.148238
 Thermal correction to Gibbs Free Energy=         0.095299
 Sum of electronic and zero-point Energies=           -990.080587
 Sum of electronic and thermal Energies=              -990.068741
 Sum of electronic and thermal Enthalpies=            -990.067797
 Sum of electronic and thermal Free Energies=         -990.120736

                     E (Thermal)             CV                S
                      KCal/Mol        Cal/Mol-Kelvin    Cal/Mol-Kelvin
 Total                   92.429             41.449            111.420
 Electronic               0.000              0.000              0.000
 Translational            0.889              2.981             41.632
 Rotational               0.889              2.981             31.113
 Vibrational             90.651             35.487             38.675
 Vibration     1          0.593              1.986              6.812
 Vibration     2          0.596              1.976              4.625
 Vibration     3          0.597              1.973              4.432
 Vibration     4          0.605              1.947              3.391
 Vibration     5          0.615              1.914              2.813
 Vibration     6          0.627              1.873              2.377
 Vibration     7          0.644              1.822              2.022
 Vibration     8          0.662              1.766              1.745
 Vibration     9          0.678              1.717              1.555
 Vibration    10          0.685              1.697              1.488
 Vibration    11          0.712              1.617              1.264
 Vibration    12          0.788              1.412              0.870
 Vibration    13          0.816              1.344              0.772
 Vibration    14          0.858              1.244              0.652
 Vibration    15          0.904              1.142              0.547
 Vibration    16          0.919              1.112              0.518
 Vibration    17          0.922              1.106              0.513
 Vibration    18          0.970              1.009              0.432

 Optimization completed.
    -- Stationary point found.
 Normal termination of Gaussian 16 at Sun Jan 28 15:24:18 2024.
 Gaussian 16:  ES64L-G16RevA.03 25-Dec-2016

 ----------------------------------------------------------------------
 # TD(NStates=10, Root=1) APFD/6-31G* volume pop=NPA density=current Ge
 om=AllCheck Guess=Read
 ----------------------------------------------------------------------

 Structure from the checkpoint file:  "BPDMJOYLYBUPSI-UHFFFAOYSA-N_conf_0_2.chk"
 ----------------------------------
 BPDMJOYLYBUPSI-UHFFFAOYSA-N_conf_0
 ----------------------------------
 Charge =  0 Multiplicity = 1

                         Standard orientation:
 ---------------------------------------------------------------------
 Center     Atomic      Atomic             Coordinates (Angstroms)
 Number     Number       Type             X           Y           Z
 ---------------------------------------------------------------------
      1          8           0        2.417503   -1.404050   -0.334862
      2         16           0        1.938286   -0.117708    0.101849
      3          6           0        0.124349   -0.050082    0.016890
      4          7           0       -0.382634    1.167694    0.021579
      5          6           0       -1.722959    1.221594    0.003815
      6          6           0       -2.342300    2.583023   -0.003147
      7          6           0       -2.478140    0.046897   -0.006229
      8          6           0       -1.813015   -1.178778    0.001879
      9          6           0       -2.529719   -2.491379    0.001189
     10          7           0       -0.469591   -1.225533    0.009901
     11          9           0        2.243777    0.914976   -1.087534
     12          8           0        2.387303    0.512787    1.319992
     13          1           0       -2.022885    3.133784   -0.894691
     14          1           0       -1.996510    3.154527    0.864767
     15          1           0       -3.434095    2.535780    0.012019
     16          1           0       -3.563204    0.087543   -0.016877
     17          1           0       -2.252235   -3.068325    0.890117
     18          1           0       -3.615159   -2.364778   -0.016017
     19          1           0       -2.224660   -3.082661   -0.868897
 ---------------------------------------------------------------------

 SCF Done:  E(RAPFD) =  -990.216035041     A.U. after    1 cycles

 Excitation energies and oscillator strengths:

 Excited State   1:      Singlet-A      4.6127 eV  268.79 nm  f=0.0011  <S**2>=0.000
      49 -> 50         0.66490
      49 -> 51         0.23083
 This state for optimization and/or second-order correction.
 Total Energy, E(TD-HF/TD-DFT) =  -990.046520151
 Copying the excited state density for this state as the 1-particle RhoCI density.

 Excited State   2:      Singlet-A      4.6810 eV  264.87 nm  f=0.0036  <S**2>=0.000
      49 -> 50        -0.23057
      49 -> 51         0.66467

 Excited State   3:      Singlet-A      5.6609 eV  219.02 nm  f=0.0352  <S**2>=0.000
      45 -> 50        -0.26416
      45 -> 51        -0.26315
      48 -> 50         0.42980
      48 -> 51        -0.39394

 Excited State   4:      Singlet-A      5.7541 eV  215.47 nm  f=0.0103  <S**2>=0.000
      43 -> 50        -0.10382
      46 -> 50        -0.29622
      46 -> 51        -0.15115
      47 -> 50         0.50994
      47 -> 51         0.26929
      48 -> 50        -0.14659
      48 -> 51        -0.10075

 Excited State   5:      Singlet-A      5.8630 eV  211.47 nm  f=0.0036  <S**2>=0.000
      43 -> 51        -0.11661
      45 -> 51         0.13707
      46 -> 50         0.15347
      46 -> 51        -0.27544
      47 -> 50        -0.29884
      47 -> 51         0.51585

 Excited State   6:      Singlet-A      6.0399 eV  205.27 nm  f=0.0549  <S**2>=0.000
      46 -> 50         0.25673
      46 -> 51         0.19708
      47 -> 50         0.23983
      47 -> 51         0.23356
      48 -> 50         0.34713
      48 -> 51         0.36270

 Excited State   7:      Singlet-A      6.3024 eV  196.73 nm  f=0.0397  <S**2>=0.000
      45 -> 50        -0.19278
      45 -> 51         0.11335
      46 -> 50         0.38578
      46 -> 51         0.32697
      47 -> 50         0.16219
      48 -> 50        -0.24988
      48 -> 51        -0.29415

 Excited State   8:      Singlet-A      6.3565 eV  195.05 nm  f=0.0001  <S**2>=0.000
      45 -> 51        -0.10090
      46 -> 50        -0.37216
      46 -> 51         0.45923
      47 -> 50        -0.21011
      47 -> 51         0.26354
      48 -> 50        -0.10360

 Excited State   9:      Singlet-A      6.6179 eV  187.35 nm  f=0.0055  <S**2>=0.000
      43 -> 50         0.11296
      44 -> 50         0.50690
      44 -> 51         0.41923
      45 -> 50        -0.13125
      45 -> 51         0.11916

 Excited State  10:      Singlet-A      6.8238 eV  181.69 nm  f=0.0112  <S**2>=0.000
      43 -> 51         0.10496
      44 -> 50        -0.43031
      44 -> 51         0.48646
      45 -> 50        -0.13572
      45 -> 51        -0.11894

 The electronic state is 1-A.
 Alpha  occ. eigenvalues --  -89.22644 -24.77948 -19.21100 -19.21066 -14.40811
 Alpha  occ. eigenvalues --  -14.40788 -10.33394 -10.30513 -10.30474 -10.25774
 Alpha  occ. eigenvalues --  -10.23440 -10.23396  -8.20582  -6.15521  -6.15172
 Alpha  occ. eigenvalues --   -6.15060  -1.27084  -1.13136  -1.04994  -1.04846
 Alpha  occ. eigenvalues --   -0.95287  -0.86276  -0.79085  -0.75100  -0.74169
 Alpha  occ. eigenvalues --   -0.65400  -0.64612  -0.57893  -0.57041  -0.53262
 Alpha  occ. eigenvalues --   -0.51801  -0.50549  -0.49168  -0.46307  -0.45748
 Alpha  occ. eigenvalues --   -0.44730  -0.44478  -0.44043  -0.43170  -0.42356
 Alpha  occ. eigenvalues --   -0.41459  -0.38628  -0.37207  -0.34913  -0.33754
 Alpha  occ. eigenvalues --   -0.33091  -0.32615  -0.31344  -0.29404
 Alpha virt. eigenvalues --   -0.06668  -0.06419   0.03908   0.06350   0.08808
 Alpha virt. eigenvalues --    0.09227   0.11147   0.11272   0.12116   0.14578
 Alpha virt. eigenvalues --    0.15385   0.17221   0.17323   0.18022   0.20893

 Mulliken charges:
               1
     1  O   -0.468061
     2  S    1.238608
     3  C    0.130787
     4  N   -0.420780
     5  C    0.333747
     6  C   -0.585844
     7  C   -0.272236
     8  C    0.265500
     9  C   -0.579130
    10  N   -0.334388
    11  F   -0.303554
    12  O   -0.468996
    13  H    0.223798
    14  H    0.225420
    15  H    0.202526
    16  H    0.183863
    17  H    0.215783
    18  H    0.196603
    19  H    0.216353
 Sum of Mulliken charges =   0.00000

 Dipole moment (field-independent basis, Debye):
    X=             -7.2283    Y=              0.7106    Z=             -0.6382  Tot=              7.2911
 Quadrupole moment (field-independent basis, Debye-Ang):
   XX=            -73.2037   YY=            -68.4319   ZZ=            -77.7927
   XY=              0.7108   XZ=             -1.9202   YZ=             -1.5706

 Summary of Natural Population Analysis:

                                       Natural Population
                Natural  -----------------------------------------------
    Atom  No    Charge         Core      Valence    Rydberg      Total
 -----------------------------------------------------------------------
      O    1   -0.89169      1.99988     6.86743    0.02438     8.89169
      S    2    2.38386      9.99892     3.40822    0.20901    13.61614
      C    3    0.01151      1.99904     3.94482    0.04463     5.98849
      N    4   -0.36641      1.99907     5.34236    0.02498     7.36641
      C    5    0.27965      1.99908     3.70007    0.02119     5.72035
      C    6   -0.73156      1.99933     4.72343    0.00880     6.73156
      C    7   -0.38928      1.99893     4.37561    0.01474     6.38928
      C    8    0.16101      1.99907     3.81749    0.02243     5.83899
      C    9   -0.72762      1.99936     4.71936    0.00890     6.72762
      N   10   -0.20926      1.99905     5.19040    0.01981     7.20926
      F   11   -0.50319      1.99997     7.49324    0.00998     9.50319
      O   12   -0.89140      1.99988     6.86715    0.02437     8.89140
      H   13    0.27770      0.00000     0.72119    0.00111     0.72230
      H   14    0.27860      0.00000     0.72027    0.00113     0.72140
      H   15    0.26022      0.00000     0.73929    0.00049     0.73978
      H   16    0.26207      0.00000     0.73719    0.00074     0.73793
      H   17    0.26914      0.00000     0.72984    0.00102     0.73086
      H   18    0.25720      0.00000     0.74232    0.00048     0.74280
      H   19    0.26946      0.00000     0.72953    0.00101     0.73054
 =======================================================================
   * Total *    0.00000     31.99159    65.56920    0.43921    98.00000

 Normal termination of Gaussian 16 at Sun Jan 28 15:28:06 2024.
