 Gaussian 16, Revision A.03,

 --------------------------------
 # opt=CalcFc APFD/6-31G* scf=xqc
 --------------------------------

 ----------------------------------
 FCFXLXGZHDHJLB-UHFFFAOYSA-N_conf_0
 ----------------------------------
 Symbolic Z-matrix:
 Charge =  0 Multiplicity = 1

 SCF Done:  E(RAPFD) =  -895.601510153     A.U. after   15 cycles
 SCF Done:  E(RAPFD) =  -895.607483629     A.U. after   14 cycles
 SCF Done:  E(RAPFD) =  -895.609460622     A.U. after   15 cycles
 SCF Done:  E(RAPFD) =  -895.610474174     A.U. after   14 cycles
 SCF Done:  E(RAPFD) =  -895.610873536     A.U. after   13 cycles
 SCF Done:  E(RAPFD) =  -895.610940524     A.U. after   12 cycles
 SCF Done:  E(RAPFD) =  -895.610952026     A.U. after   11 cycles
 Optimization completed.
    -- Stationary point found.
 Normal termination of Gaussian 16 at Sun Jan 28 15:14:11 2024.

 ----------------------------------------------------------------------
 # freq APFD/6-31G* volume NMR pop=NPA density=current Geom=AllCheck Gu
 ess=Read
 ----------------------------------------------------------------------

 Structure from the checkpoint file:  "FCFXLXGZHDHJLB-UHFFFAOYSA-N_conf_0_1.chk"
 ----------------------------------
 FCFXLXGZHDHJLB-UHFFFAOYSA-N_conf_0
 ----------------------------------
 Charge =  0 Multiplicity = 1

 SCF Done:  E(RAPFD) =  -895.610952026     A.U. after    1 cycles

      1  F    Isotropic =   123.1617   Anisotropy =   332.2373

      2  S    Isotropic =   234.9563   Anisotropy =   330.3583

      3  C    Isotropic =    42.3202   Anisotropy =   106.7032

      4  N    Isotropic =   -49.2877   Anisotropy =   521.3197

      5  C    Isotropic =    49.1350   Anisotropy =   160.9455

      6  C    Isotropic =    71.7478   Anisotropy =   171.8725

      7  C    Isotropic =    62.1456   Anisotropy =   189.3255

      8  C    Isotropic =    74.8854   Anisotropy =   169.2245

      9  O    Isotropic =   109.7712   Anisotropy =    69.6732

     10  O    Isotropic =   122.4332   Anisotropy =    71.3740

     11  H    Isotropic =    23.2834   Anisotropy =     5.0865

     12  H    Isotropic =    24.7143   Anisotropy =     4.6301

     13  H    Isotropic =    24.2861   Anisotropy =     4.7537

     14  H    Isotropic =    24.1695   Anisotropy =     8.2514

  Exact polarizability: 101.542   1.549  80.940  -2.543   1.392  39.641
 Approx polarizability: 146.615   1.249 148.335  -4.590   4.643  64.257

                      1                      2                      3
                      A                      A                      A
 Frequencies --     39.8365               113.8408               183.5068
 Red. masses --      6.7688                 7.0532                 8.2552
 Frc consts  --      0.0063                 0.0539                 0.1638
 IR Inten    --      0.9188                 0.0770                 0.3132

                      4                      5                      6
                      A                      A                      A
 Frequencies --    269.8234               309.6603               345.9486
 Red. masses --      7.0683                 9.2259                11.0041
 Frc consts  --      0.3032                 0.5212                 0.7759
 IR Inten    --      0.9878                 4.2771                 0.3841

                      7                      8                      9
                      A                      A                      A
 Frequencies --    408.8039               443.4128               481.5377
 Red. masses --      3.5142                 7.9605                13.1908
 Frc consts  --      0.3460                 0.9222                 1.8021
 IR Inten    --      1.1538                 8.3341                11.3194

                     10                     11                     12
                      A                      A                      A
 Frequencies --    531.8766               593.4094               616.7248
 Red. masses --      4.4997                15.4431                 7.2980
 Frc consts  --      0.7500                 3.2040                 1.6354
 IR Inten    --     15.4609               134.4473                 3.0995

                     13                     14                     15
                      A                      A                      A
 Frequencies --    745.7413               752.3708               791.4815
 Red. masses --      7.8138                 3.4589                 1.4616
 Frc consts  --      2.5603                 1.1536                 0.5395
 IR Inten    --     13.4957                 7.5913                75.6991

                     16                     17                     18
                      A                      A                      A
 Frequencies --    828.5659               928.1578               992.1462
 Red. masses --     13.0577                 1.2632                 1.4063
 Frc consts  --      5.2816                 0.6412                 0.8156
 IR Inten    --    179.0105                 0.2766                 0.1629

                     19                     20                     21
                      A                      A                      A
 Frequencies --   1012.2335              1026.0715              1076.6050
 Red. masses --      7.4600                 1.3178                 2.7339
 Frc consts  --      4.5035                 0.8174                 1.8670
 IR Inten    --      7.9029                 0.0416                 2.9610

                     22                     23                     24
                      A                      A                      A
 Frequencies --   1124.6149              1157.3110              1197.0326
 Red. masses --      1.7794                 2.5985                 1.1229
 Frc consts  --      1.3259                 2.0505                 0.9480
 IR Inten    --     13.5564                22.5528                 1.8239

                     25                     26                     27
                      A                      A                      A
 Frequencies --   1225.9633              1334.7261              1365.4932
 Red. masses --      9.6741                 1.4896                 5.4749
 Frc consts  --      8.5668                 1.5635                 6.0146
 IR Inten    --    157.3112                 2.1986                 2.8172

                     28                     29                     30
                      A                      A                      A
 Frequencies --   1428.9312              1480.9547              1511.3327
 Red. masses --     17.1228                 2.2546                 2.2000
 Frc consts  --     20.5991                 2.9134                 2.9607
 IR Inten    --    184.9817                39.6151                 9.7154

                     31                     32                     33
                      A                      A                      A
 Frequencies --   1646.8377              1660.2106              3213.7195
 Red. masses --      5.6593                 6.5016                 1.0889
 Frc consts  --      9.0431                10.5584                 6.6258
 IR Inten    --     11.7987                14.9989                 6.5237

                     34                     35                     36
                      A                      A                      A
 Frequencies --   3226.0616              3242.1123              3262.4667
 Red. masses --      1.0905                 1.0970                 1.0945
 Frc consts  --      6.6869                 6.7936                 6.8635
 IR Inten    --      7.4606                 7.0531                 2.6262

 - Thermochemistry -
 -------------------
 Temperature   298.150 Kelvin.  Pressure   1.00000 Atm.
 Atom     1 has atomic number  9 and mass  18.99840

 Molecular mass:   160.99468 amu.
 Principal axes and moments of inertia in atomic units:
                           1         2         3
     Eigenvalues --   682.121522119.357432423.17379
           X            0.99999   0.00066  -0.00506
           Y           -0.00062   0.99997   0.00766
           Z            0.00507  -0.00765   0.99996
 This molecule is an asymmetric top.
 Rotational symmetry number  1.
 Warning -- assumption of classical behavior for rotation
           may cause significant error
 Rotational temperatures (Kelvin)      0.12698     0.04087     0.03574
 Rotational constants (GHZ):           2.64578     0.85155     0.74478
 Zero-point vibrational energy     242659.6 (Joules/Mol)
                                   57.99704 (Kcal/Mol)
 Warning -- explicit consideration of  12 degrees of freedom as
           vibrations may cause significant error
 Vibrational temperatures:     57.32   163.79   264.03   388.22   445.53
          (Kelvin)            497.74   588.18   637.97   692.83   765.25
                              853.78   887.33  1072.96  1082.49  1138.77
                             1192.12  1335.41  1427.48  1456.38  1476.29
                             1548.99  1618.07  1665.11  1722.26  1763.89
                             1920.37  1964.64  2055.91  2130.76  2174.47
                             2369.43  2388.67  4623.83  4641.58  4664.68
                             4693.96

 Zero-point correction=                           0.092424 (Hartree/Particle)
 Thermal correction to Energy=                    0.100604
 Thermal correction to Enthalpy=                  0.101548
 Thermal correction to Gibbs Free Energy=         0.058190
 Sum of electronic and zero-point Energies=           -895.518528
 Sum of electronic and thermal Energies=              -895.510348
 Sum of electronic and thermal Enthalpies=            -895.509404
 Sum of electronic and thermal Free Energies=         -895.552762

                     E (Thermal)             CV                S
                      KCal/Mol        Cal/Mol-Kelvin    Cal/Mol-Kelvin
 Total                   63.130             30.134             91.253
 Electronic               0.000              0.000              0.000
 Translational            0.889              2.981             41.137
 Rotational               0.889              2.981             29.639
 Vibrational             61.352             24.173             20.477
 Vibration     1          0.594              1.981              5.267
 Vibration     2          0.607              1.938              3.202
 Vibration     3          0.631              1.862              2.292
 Vibration     4          0.674              1.729              1.597
 Vibration     5          0.699              1.655              1.364
 Vibration     6          0.724              1.584              1.185
 Vibration     7          0.773              1.451              0.931
 Vibration     8          0.803              1.375              0.816
 Vibration     9          0.838              1.291              0.706
 Vibration    10          0.887              1.179              0.583
 Vibration    11          0.951              1.046              0.461
 Vibration    12          0.976              0.997              0.422

                           ! Non-Optimized Parameters !
 Normal termination of Gaussian 16 at Sun Jan 28 15:16:56 2024.
 Gaussian 16:  ES64L-G16RevA.03 25-Dec-2016

 ----------------------------------------------------------------------
 # TD(NStates=10, Root=1) APFD/6-31G* volume pop=NPA density=current Ge
 om=AllCheck Guess=Read
 ----------------------------------------------------------------------

 Structure from the checkpoint file:  "FCFXLXGZHDHJLB-UHFFFAOYSA-N_conf_0_2.chk"
 ----------------------------------
 FCFXLXGZHDHJLB-UHFFFAOYSA-N_conf_0
 ----------------------------------
 Charge =  0 Multiplicity = 1

                         Standard orientation:
 ---------------------------------------------------------------------
 Center     Atomic      Atomic             Coordinates (Angstroms)
 Number     Number       Type             X           Y           Z
 ---------------------------------------------------------------------
      1          9           0       -1.769750    0.570335   -1.325577
      2         16           0       -1.460442   -0.048485    0.122568
      3          6           0        0.332497   -0.019604    0.047346
      4          7           0        0.881714    1.184019    0.036108
      5          6           0        2.211893    1.229483    0.001414
      6          6           0        3.012361    0.084978   -0.015081
      7          6           0        2.400845   -1.164356   -0.000518
      8          6           0        1.008836   -1.232845    0.028901
      9          8           0       -1.953147    0.899849    1.088839
     10          8           0       -1.907635   -1.423153    0.082390
     11          1           0        2.654484    2.222996   -0.011712
     12          1           0        4.094236    0.178795   -0.038603
     13          1           0        2.994687   -2.074357   -0.012657
     14          1           0        0.467079   -2.172323    0.037103
 ---------------------------------------------------------------------

 SCF Done:  E(RAPFD) =  -895.610952026     A.U. after    1 cycles

 Excitation energies and oscillator strengths:

 Excited State   1:      Singlet-A      4.8218 eV  257.13 nm  f=0.0034  <S**2>=0.000
      41 -> 42         0.70199
 This state for optimization and/or second-order correction.
 Total Energy, E(TD-HF/TD-DFT) =  -895.433753845
 Copying the excited state density for this state as the 1-particle RhoCI density.

 Excited State   2:      Singlet-A      5.3099 eV  233.50 nm  f=0.0010  <S**2>=0.000
      41 -> 43         0.70128

 Excited State   3:      Singlet-A      5.5777 eV  222.28 nm  f=0.0576  <S**2>=0.000
      38 -> 43         0.12267
      39 -> 42         0.20163
      39 -> 43        -0.25189
      40 -> 42         0.55511
      40 -> 43         0.24561

 Excited State   4:      Singlet-A      6.0942 eV  203.45 nm  f=0.0304  <S**2>=0.000
      37 -> 42         0.13817
      38 -> 42         0.35409
      39 -> 42         0.45696
      40 -> 42        -0.24330
      40 -> 43         0.27440

 Excited State   5:      Singlet-A      6.3089 eV  196.52 nm  f=0.0515  <S**2>=0.000
      38 -> 42         0.55407
      39 -> 42        -0.11949
      40 -> 42         0.22412
      40 -> 43        -0.32902

 Excited State   6:      Singlet-A      6.5973 eV  187.93 nm  f=0.0027  <S**2>=0.000
      36 -> 42         0.52627
      37 -> 42         0.40435
      40 -> 43        -0.18304

 Excited State   7:      Singlet-A      6.6685 eV  185.92 nm  f=0.0001  <S**2>=0.000
      36 -> 42        -0.44642
      37 -> 42         0.50831
      38 -> 42        -0.13006

 Excited State   8:      Singlet-A      6.7948 eV  182.47 nm  f=0.0043  <S**2>=0.000
      38 -> 43         0.60598
      39 -> 42         0.16083
      39 -> 43         0.28005
      40 -> 43        -0.11572

 Excited State   9:      Singlet-A      7.1226 eV  174.07 nm  f=0.0558  <S**2>=0.000
      36 -> 43         0.39264
      37 -> 43         0.44575
      38 -> 43        -0.20971
      39 -> 42         0.19392
      39 -> 43         0.13468
      40 -> 43        -0.15929

 Excited State  10:      Singlet-A      7.3029 eV  169.77 nm  f=0.0488  <S**2>=0.000
      36 -> 43         0.56379
      37 -> 43        -0.30021
      38 -> 43         0.11236
      39 -> 42        -0.17349
      40 -> 43         0.17402

 The electronic state is 1-A.
 Alpha  occ. eigenvalues --  -89.23342 -24.78448 -19.21773 -19.21575 -14.41141
 Alpha  occ. eigenvalues --  -10.30998 -10.28543 -10.27157 -10.26788 -10.26302
 Alpha  occ. eigenvalues --   -8.21256  -6.16193  -6.15854  -6.15735  -1.27581
 Alpha  occ. eigenvalues --   -1.13717  -1.05615  -1.01107  -0.86167  -0.83213
 Alpha  occ. eigenvalues --   -0.72894  -0.68638  -0.65463  -0.59636  -0.55382
 Alpha  occ. eigenvalues --   -0.53460  -0.52963  -0.50754  -0.49553  -0.46404
 Alpha  occ. eigenvalues --   -0.45430  -0.44722  -0.44263  -0.42080  -0.39329
 Alpha  occ. eigenvalues --   -0.35999  -0.35340  -0.33537  -0.33288  -0.31051
 Alpha  occ. eigenvalues --   -0.30393
 Alpha virt. eigenvalues --   -0.07102  -0.05239   0.03305   0.06248   0.08600
 Alpha virt. eigenvalues --    0.10608   0.11236   0.13283   0.14778   0.16101
 Alpha virt. eigenvalues --    0.17039   0.23131   0.26600   0.27829   0.30528

 Mulliken charges:
               1
     1  F   -0.297246
     2  S    1.240865
     3  C   -0.072619
     4  N   -0.332861
     5  C    0.059508
     6  C   -0.233855
     7  C   -0.167966
     8  C   -0.131232
     9  O   -0.460257
    10  O   -0.480511
    11  H    0.232023
    12  H    0.200593
    13  H    0.197824
    14  H    0.245735
 Sum of Mulliken charges =  -0.00000

 Dipole moment (field-independent basis, Debye):
    X=              5.4592    Y=              0.3579    Z=             -0.6998  Tot=              5.5155
 Quadrupole moment (field-independent basis, Debye-Ang):
   XX=            -58.7272   YY=            -58.1010   ZZ=            -66.5253
   XY=              0.9574   XZ=              1.7070   YZ=             -1.1539

 Summary of Natural Population Analysis:

                                       Natural Population
                Natural  -----------------------------------------------
    Atom  No    Charge         Core      Valence    Rydberg      Total
 -----------------------------------------------------------------------
      F    1   -0.50163      1.99997     7.49155    0.01011     9.50163
      S    2    2.40357      9.99880     3.38908    0.20855    13.59643
      C    3   -0.26199      1.99877     4.22627    0.03695     6.26199
      N    4   -0.14010      1.99884     5.12316    0.01809     7.14010
      C    5    0.01012      1.99913     3.97032    0.02043     5.98988
      C    6   -0.36395      1.99908     4.34835    0.01652     6.36395
      C    7   -0.26426      1.99910     4.24792    0.01725     6.26426
      C    8   -0.21603      1.99895     4.20125    0.01582     6.21603
      O    9   -0.88455      1.99988     6.86021    0.02446     8.88455
      O   10   -0.89644      1.99988     6.87312    0.02345     8.89644
      H   11    0.27439      0.00000     0.72506    0.00055     0.72561
      H   12    0.27380      0.00000     0.72571    0.00049     0.72620
      H   13    0.26826      0.00000     0.73116    0.00058     0.73174
      H   14    0.29881      0.00000     0.70026    0.00094     0.70119
 =======================================================================
   * Total *    0.00000     27.99239    53.61341    0.39419    82.00000

 Normal termination of Gaussian 16 at Sun Jan 28 15:20:42 2024.
