 Gaussian 16, Revision A.03,

 --------------------------------
 # opt=CalcFc APFD/6-31G* scf=xqc
 --------------------------------

 ----------------------------------
 HMZIGHBQOOGZAK-UHFFFAOYSA-N_conf_0
 ----------------------------------
 Symbolic Z-matrix:
 Charge =  0 Multiplicity = 1

 SCF Done:  E(RAPFD) =  -911.624192617     A.U. after   15 cycles
 SCF Done:  E(RAPFD) =  -911.631100399     A.U. after   15 cycles
 SCF Done:  E(RAPFD) =  -911.631234062     A.U. after   15 cycles
 SCF Done:  E(RAPFD) =  -911.631519167     A.U. after   11 cycles
 SCF Done:  E(RAPFD) =  -911.631593830     A.U. after   12 cycles
 SCF Done:  E(RAPFD) =  -911.631613796     A.U. after   11 cycles
 SCF Done:  E(RAPFD) =  -911.631620933     A.U. after   11 cycles
 SCF Done:  E(RAPFD) =  -911.631622580     A.U. after    9 cycles
 SCF Done:  E(RAPFD) =  -911.631622625     A.U. after    8 cycles
 Optimization completed.
    -- Stationary point found.
 Normal termination of Gaussian 16 at Sun Jan 28 15:13:58 2024.

 ----------------------------------------------------------------------
 # freq APFD/6-31G* volume NMR pop=NPA density=current Geom=AllCheck Gu
 ess=Read
 ----------------------------------------------------------------------

 Structure from the checkpoint file:  "HMZIGHBQOOGZAK-UHFFFAOYSA-N_conf_0_1.chk"
 ----------------------------------
 HMZIGHBQOOGZAK-UHFFFAOYSA-N_conf_0
 ----------------------------------
 Charge =  0 Multiplicity = 1

 SCF Done:  E(RAPFD) =  -911.631622625     A.U. after    1 cycles

      1  F    Isotropic =   128.6036   Anisotropy =   332.0099

      2  S    Isotropic =   239.4303   Anisotropy =   347.6482

      3  C    Isotropic =    32.2011   Anisotropy =   102.0494

      4  N    Isotropic =   -30.3798   Anisotropy =   482.3290

      5  C    Isotropic =    41.6286   Anisotropy =   177.2142

      6  C    Isotropic =    75.1267   Anisotropy =   165.1945

      7  C    Isotropic =    40.9494   Anisotropy =   178.4878

      8  N    Isotropic =   -31.2728   Anisotropy =   479.5525

      9  O    Isotropic =   117.7581   Anisotropy =    71.0318

     10  O    Isotropic =   101.2882   Anisotropy =    63.8762

     11  H    Isotropic =    23.2844   Anisotropy =     5.2696

     12  H    Isotropic =    24.9192   Anisotropy =     4.3023

     13  H    Isotropic =    23.2381   Anisotropy =     5.2489

  Exact polarizability:  96.093   1.082  73.875  -1.867   1.910  40.220
 Approx polarizability: 136.209   1.572 137.138  -3.198   6.358  67.275

                      1                      2                      3
                      A                      A                      A
 Frequencies --     23.1199               111.4205               170.4584
 Red. masses --      7.8963                 7.4177                 9.3063
 Frc consts  --      0.0025                 0.0543                 0.1593
 IR Inten    --      0.1406                 0.7413                 0.1470

                      4                      5                      6
                      A                      A                      A
 Frequencies --    265.5802               301.6590               333.4697
 Red. masses --      8.5627                11.2665                11.6698
 Frc consts  --      0.3558                 0.6040                 0.7646
 IR Inten    --      2.2499                 4.3228                 0.0610

                      7                      8                      9
                      A                      A                      A
 Frequencies --    402.7442               429.8584               483.0764
 Red. masses --      4.2005                 8.3854                14.4129
 Frc consts  --      0.4014                 0.9129                 1.9817
 IR Inten    --      0.1724                 8.3980                15.0059

                     10                     11                     12
                      A                      A                      A
 Frequencies --    529.1015               598.7351               632.5554
 Red. masses --      3.9316                17.5435                 8.1895
 Frc consts  --      0.6485                 3.7054                 1.9307
 IR Inten    --     14.6983               148.3038                10.9868

                     13                     14                     15
                      A                      A                      A
 Frequencies --    761.7615               806.7697               826.2212
 Red. masses --      8.7132                 8.6174                 3.1035
 Frc consts  --      2.9790                 3.3046                 1.2482
 IR Inten    --     18.3731                11.3833               161.1829

                     16                     17                     18
                      A                      A                      A
 Frequencies --    837.7342               997.9568              1010.0909
 Red. masses --      1.8260                 9.3702                 1.3781
 Frc consts  --      0.7550                 5.4982                 0.8284
 IR Inten    --     38.1251                 3.7342                 0.0088

                     19                     20                     21
                      A                      A                      A
 Frequencies --   1019.5125              1101.5447              1138.5802
 Red. masses --      1.4284                 2.8652                 1.3827
 Frc consts  --      0.8748                 2.0484                 1.0561
 IR Inten    --      0.0021                 0.6459                 0.3770

                     22                     23                     24
                      A                      A                      A
 Frequencies --   1188.8241              1260.4025              1282.0383
 Red. masses --      6.7354                 5.3762                 3.0777
 Frc consts  --      5.6085                 5.0321                 2.9804
 IR Inten    --    132.3714                50.4427                 1.0167

                     25                     26                     27
                      A                      A                      A
 Frequencies --   1343.0729              1440.5818              1447.3074
 Red. masses --      2.1373                19.6793                 2.2152
 Frc consts  --      2.2715                24.0622                 2.7339
 IR Inten    --      1.1292               201.4685                77.2067

                     28                     29                     30
                      A                      A                      A
 Frequencies --   1487.2893              1637.7277              1645.1005
 Red. masses --      2.2037                 5.2748                 7.0412
 Frc consts  --      2.8720                 8.3356                11.2275
 IR Inten    --      9.8551                50.9565                77.7679

                     31                     32                     33
                      A                      A                      A
 Frequencies --   3217.2120              3221.0494              3252.9086
 Red. masses --      1.0902                 1.0929                 1.0974
 Frc consts  --      6.6483                 6.6811                 6.8413
 IR Inten    --      7.2632                10.0072                 3.5248

 - Thermochemistry -
 -------------------
 Temperature   298.150 Kelvin.  Pressure   1.00000 Atm.
 Atom     1 has atomic number  9 and mass  18.99840

 Molecular mass:   161.98993 amu.
 Principal axes and moments of inertia in atomic units:
                           1         2         3
     Eigenvalues --   671.098792071.380112367.73851
           X            0.99998   0.00433  -0.00403
           Y           -0.00428   0.99992   0.01181
           Z            0.00408  -0.01180   0.99992
 This molecule is an asymmetric top.
 Rotational symmetry number  1.
 Warning -- assumption of classical behavior for rotation
           may cause significant error
 Rotational temperatures (Kelvin)      0.12906     0.04181     0.03658
 Rotational constants (GHZ):           2.68923     0.87127     0.76222
 Zero-point vibrational energy     210575.4 (Joules/Mol)
                                   50.32874 (Kcal/Mol)
 Warning -- explicit consideration of  11 degrees of freedom as
           vibrations may cause significant error
 Vibrational temperatures:     33.26   160.31   245.25   382.11   434.02
          (Kelvin)            479.79   579.46   618.47   695.04   761.26
                              861.45   910.11  1096.00  1160.76  1188.75
                             1205.31  1435.84  1453.30  1466.85  1584.88
                             1638.16  1710.45  1813.44  1844.57  1932.38
                             2072.68  2082.35  2139.88  2356.32  2366.93
                             4628.85  4634.37  4680.21

 Zero-point correction=                           0.080204 (Hartree/Particle)
 Thermal correction to Energy=                    0.088380
 Thermal correction to Enthalpy=                  0.089324
 Thermal correction to Gibbs Free Energy=         0.045441
 Sum of electronic and zero-point Energies=           -911.551419
 Sum of electronic and thermal Energies=              -911.543243
 Sum of electronic and thermal Enthalpies=            -911.542299
 Sum of electronic and thermal Free Energies=         -911.586181

                     E (Thermal)             CV                S
                      KCal/Mol        Cal/Mol-Kelvin    Cal/Mol-Kelvin
 Total                   55.459             29.323             92.358
 Electronic               0.000              0.000              0.000
 Translational            0.889              2.981             41.156
 Rotational               0.889              2.981             29.577
 Vibrational             53.682             23.361             21.625
 Vibration     1          0.593              1.985              6.346
 Vibration     2          0.607              1.940              3.244
 Vibration     3          0.626              1.879              2.430
 Vibration     4          0.671              1.736              1.625
 Vibration     5          0.694              1.671              1.408
 Vibration     6          0.715              1.609              1.243
 Vibration     7          0.768              1.464              0.953
 Vibration     8          0.791              1.405              0.859
 Vibration     9          0.839              1.288              0.702
 Vibration    10          0.884              1.186              0.589
 Vibration    11          0.957              1.034              0.452

 Optimization completed.
    -- Stationary point found.
 Normal termination of Gaussian 16 at Sun Jan 28 15:16:10 2024.
 Gaussian 16:  ES64L-G16RevA.03 25-Dec-2016

 ----------------------------------------------------------------------
 # TD(NStates=10, Root=1) APFD/6-31G* volume pop=NPA density=current Ge
 om=AllCheck Guess=Read
 ----------------------------------------------------------------------

 Structure from the checkpoint file:  "HMZIGHBQOOGZAK-UHFFFAOYSA-N_conf_0_2.chk"
 ----------------------------------
 HMZIGHBQOOGZAK-UHFFFAOYSA-N_conf_0
 ----------------------------------
 Charge =  0 Multiplicity = 1

                         Standard orientation:
 ---------------------------------------------------------------------
 Center     Atomic      Atomic             Coordinates (Angstroms)
 Number     Number       Type             X           Y           Z
 ---------------------------------------------------------------------
      1          9           0       -1.740970    0.929588   -1.097537
      2         16           0       -1.452613   -0.093106    0.102401
      3          6           0        0.360947   -0.044291    0.018584
      4          7           0        0.951710   -1.225430    0.014658
      5          6           0        2.287894   -1.176860    0.004957
      6          6           0        2.982795    0.028341   -0.008106
      7          6           0        2.221724    1.195355   -0.000735
      8          7           0        0.887704    1.169328    0.018988
      9          8           0       -1.938228   -1.380339   -0.321521
     10          8           0       -1.891828    0.555000    1.313788
     11          1           0        2.803156   -2.134873    0.006129
     12          1           0        4.067529    0.058465   -0.020485
     13          1           0        2.684240    2.179968   -0.008090
 ---------------------------------------------------------------------

 SCF Done:  E(RAPFD) =  -911.631622625     A.U. after    1 cycles

 Excitation energies and oscillator strengths:

 Excited State   1:      Singlet-A      4.4879 eV  276.26 nm  f=0.0019  <S**2>=0.000
      41 -> 42         0.70215
 This state for optimization and/or second-order correction.
 Total Energy, E(TD-HF/TD-DFT) =  -911.466695545
 Copying the excited state density for this state as the 1-particle RhoCI density.

 Excited State   2:      Singlet-A      4.5498 eV  272.50 nm  f=0.0031  <S**2>=0.000
      41 -> 43         0.70194

 Excited State   3:      Singlet-A      5.6894 eV  217.92 nm  f=0.0105  <S**2>=0.000
      35 -> 42         0.11679
      38 -> 42         0.40707
      39 -> 42         0.50369
      40 -> 42        -0.20911

 Excited State   4:      Singlet-A      5.7529 eV  215.52 nm  f=0.0083  <S**2>=0.000
      35 -> 43         0.11882
      36 -> 42        -0.16688
      38 -> 43         0.24819
      39 -> 43         0.44158
      40 -> 42         0.20789
      40 -> 43        -0.37869

 Excited State   5:      Singlet-A      5.8492 eV  211.97 nm  f=0.0149  <S**2>=0.000
      36 -> 42        -0.20528
      36 -> 43        -0.16986
      38 -> 42         0.11812
      38 -> 43        -0.33232
      39 -> 42         0.16073
      39 -> 43        -0.27534
      40 -> 42         0.34923
      40 -> 43        -0.25908

 Excited State   6:      Singlet-A      5.8969 eV  210.25 nm  f=0.0269  <S**2>=0.000
      38 -> 42        -0.21520
      39 -> 42         0.30604
      39 -> 43         0.22359
      40 -> 42         0.39460
      40 -> 43         0.35707

 Excited State   7:      Singlet-A      6.1970 eV  200.07 nm  f=0.0026  <S**2>=0.000
      36 -> 42         0.12660
      36 -> 43         0.10468
      38 -> 42        -0.27428
      38 -> 43         0.40435
      39 -> 42         0.22694
      39 -> 43        -0.34495
      40 -> 43        -0.22765

 Excited State   8:      Singlet-A      6.3058 eV  196.62 nm  f=0.0750  <S**2>=0.000
      37 -> 42        -0.30990
      37 -> 43        -0.15066
      38 -> 42         0.37246
      38 -> 43         0.28003
      39 -> 42        -0.21258
      39 -> 43        -0.15935
      40 -> 42         0.22340
      40 -> 43         0.15440

 Excited State   9:      Singlet-A      6.6231 eV  187.20 nm  f=0.0536  <S**2>=0.000
      35 -> 42         0.22356
      36 -> 42         0.10622
      36 -> 43        -0.15387
      37 -> 42         0.53698
      37 -> 43         0.13861
      38 -> 42         0.11774
      38 -> 43         0.13119
      40 -> 42         0.17982
      40 -> 43         0.13577

 Excited State  10:      Singlet-A      6.6831 eV  185.52 nm  f=0.0014  <S**2>=0.000
      36 -> 42         0.15681
      37 -> 42        -0.21858
      37 -> 43         0.61019
      38 -> 43        -0.11902

 The electronic state is 1-A.
 Alpha  occ. eigenvalues --  -89.23447 -24.78687 -19.21828 -19.21790 -14.42560
 Alpha  occ. eigenvalues --  -14.42555 -10.34519 -10.30884 -10.30837 -10.27554
 Alpha  occ. eigenvalues --   -8.21374  -6.16310  -6.15961  -6.15863  -1.27866
 Alpha  occ. eigenvalues --   -1.13895  -1.06081  -1.05760  -0.96110  -0.86030
 Alpha  occ. eigenvalues --   -0.75129  -0.72039  -0.67207  -0.60526  -0.57397
 Alpha  occ. eigenvalues --   -0.55078  -0.53335  -0.51213  -0.49029  -0.48584
 Alpha  occ. eigenvalues --   -0.46937  -0.44982  -0.44772  -0.39429  -0.38469
 Alpha  occ. eigenvalues --   -0.36892  -0.35909  -0.34271  -0.33557  -0.32918
 Alpha  occ. eigenvalues --   -0.30459
 Alpha virt. eigenvalues --   -0.08075  -0.07802   0.03161   0.05506   0.08307
 Alpha virt. eigenvalues --    0.08985   0.10318   0.13408   0.14862   0.15786
 Alpha virt. eigenvalues --    0.20951   0.22882   0.29159   0.29451   0.32032

 Mulliken charges:
               1
     1  F   -0.298135
     2  S    1.252601
     3  C    0.146079
     4  N   -0.276400
     5  C   -0.024556
     6  C   -0.222830
     7  C    0.059942
     8  N   -0.376513
     9  O   -0.459822
    10  O   -0.461319
    11  H    0.223857
    12  H    0.203489
    13  H    0.233607
 Sum of Mulliken charges =  -0.00000

 Dipole moment (field-independent basis, Debye):
    X=              6.2600    Y=              0.4921    Z=             -0.6307  Tot=              6.3109
 Quadrupole moment (field-independent basis, Debye-Ang):
   XX=            -54.5511   YY=            -60.1379   ZZ=            -65.5996
   XY=             -0.5178   XZ=              1.5508   YZ=             -1.5981

 Summary of Natural Population Analysis:

                                       Natural Population
                Natural  -----------------------------------------------
    Atom  No    Charge         Core      Valence    Rydberg      Total
 -----------------------------------------------------------------------
      F    1   -0.49824      1.99997     7.48817    0.01010     9.49824
      S    2    2.39112      9.99890     3.40093    0.20905    13.60888
      C    3    0.02885      1.99905     3.92838    0.04372     5.97115
      N    4   -0.18984      1.99910     5.17048    0.02026     7.18984
      C    5   -0.09437      1.99915     4.06987    0.02535     6.09437
      C    6   -0.37174      1.99911     4.35722    0.01541     6.37174
      C    7    0.05514      1.99916     3.92395    0.02175     5.94486
      N    8   -0.36812      1.99913     5.34321    0.02578     7.36812
      O    9   -0.88454      1.99988     6.86008    0.02458     8.88454
      O   10   -0.88305      1.99988     6.85862    0.02455     8.88305
      H   11    0.26909      0.00000     0.73032    0.00059     0.73091
      H   12    0.27115      0.00000     0.72824    0.00061     0.72885
      H   13    0.27456      0.00000     0.72479    0.00065     0.72544
 =======================================================================
   * Total *    0.00000     27.99334    53.58426    0.42241    82.00000

 Normal termination of Gaussian 16 at Sun Jan 28 15:19:14 2024.
