 Gaussian 16, Revision A.03,

 --------------------------------
 # opt=CalcFc APFD/6-31G* scf=xqc
 --------------------------------

 ----------------------------------
 LLQSKDZICCVCEB-UHFFFAOYSA-N_conf_0
 ----------------------------------
 Symbolic Z-matrix:
 Charge =  0 Multiplicity = 1

 SCF Done:  E(RAPFD) =  -1107.28317592     A.U. after   15 cycles
 SCF Done:  E(RAPFD) =  -1107.28894893     A.U. after   13 cycles
 SCF Done:  E(RAPFD) =  -1107.28918232     A.U. after   12 cycles
 SCF Done:  E(RAPFD) =  -1107.28919346     A.U. after   11 cycles
 SCF Done:  E(RAPFD) =  -1107.28920182     A.U. after   10 cycles
 SCF Done:  E(RAPFD) =  -1107.28920194     A.U. after    7 cycles
 Optimization completed.
    -- Stationary point found.
 Normal termination of Gaussian 16 at Sun Jan 28 15:19:17 2024.

 ----------------------------------------------------------------------
 # freq APFD/6-31G* volume NMR pop=NPA density=current Geom=AllCheck Gu
 ess=Read
 ----------------------------------------------------------------------

 Structure from the checkpoint file:  "LLQSKDZICCVCEB-UHFFFAOYSA-N_conf_0_1.chk"
 ----------------------------------
 LLQSKDZICCVCEB-UHFFFAOYSA-N_conf_0
 ----------------------------------
 Charge =  0 Multiplicity = 1

 SCF Done:  E(RAPFD) =  -1107.28920194     A.U. after    1 cycles

      1  O    Isotropic =   115.9805   Anisotropy =    73.5696

      2  S    Isotropic =   231.9901   Anisotropy =   317.9899

      3  C    Isotropic =    60.5697   Anisotropy =   111.7564

      4  C    Isotropic =    68.3090   Anisotropy =   171.3628

      5  C    Isotropic =    68.4356   Anisotropy =   172.9405

      6  C    Isotropic =    65.3472   Anisotropy =   179.5001

      7  C    Isotropic =    66.4177   Anisotropy =   171.0595

      8  C    Isotropic =    65.5638   Anisotropy =   153.9998

      9  C    Isotropic =    35.7648   Anisotropy =    83.4760

     10  O    Isotropic =   152.9159   Anisotropy =   151.1502

     11  C    Isotropic =   142.1394   Anisotropy =    65.4675

     12  O    Isotropic =   -67.2090   Anisotropy =   587.5509

     13  F    Isotropic =   113.8718   Anisotropy =   338.6310

     14  O    Isotropic =   103.1544   Anisotropy =    68.3446

     15  H    Isotropic =    24.0729   Anisotropy =     8.4999

     16  H    Isotropic =    24.4905   Anisotropy =     4.4394

     17  H    Isotropic =    24.4257   Anisotropy =     4.3681

     18  H    Isotropic =    24.1332   Anisotropy =     7.0725

     19  H    Isotropic =    28.2283   Anisotropy =     8.1687

     20  H    Isotropic =    28.0743   Anisotropy =     8.9589

     21  H    Isotropic =    28.5320   Anisotropy =     7.7386

  Exact polarizability: 139.447   1.702 119.385   4.588  -3.643  58.921
 Approx polarizability: 203.281  -5.203 196.384  12.102 -14.032  98.094

                      1                      2                      3
                      A                      A                      A
 Frequencies --     49.1568                78.4338                87.6057
 Red. masses --      6.2687                 3.7011                 4.6029
 Frc consts  --      0.0089                 0.0134                 0.0208
 IR Inten    --      2.4855                 2.4825                 1.3749

                      4                      5                      6
                      A                      A                      A
 Frequencies --    109.3757               120.5334               131.8218
 Red. masses --      5.2686                 1.2461                 5.5298
 Frc consts  --      0.0371                 0.0107                 0.0566
 IR Inten    --      0.7893                 0.3300                 0.4056

                      7                      8                      9
                      A                      A                      A
 Frequencies --    195.7557               238.5910               258.7328
 Red. masses --      9.5229                 6.5462                 6.6970
 Frc consts  --      0.2150                 0.2196                 0.2641
 IR Inten    --      0.3779                 2.8321                 1.3115

                     10                     11                     12
                      A                      A                      A
 Frequencies --    288.2772               313.5569               336.4869
 Red. masses --      7.5792                 5.3657                 7.4327
 Frc consts  --      0.3711                 0.3108                 0.4958
 IR Inten    --      2.7528                 6.8853                 6.1543

                     13                     14                     15
                      A                      A                      A
 Frequencies --    382.5527               406.1013               442.7161
 Red. masses --      6.8701                 5.7356                 6.7184
 Frc consts  --      0.5924                 0.5573                 0.7758
 IR Inten    --      2.2545                11.6992                 4.2116

                     16                     17                     18
                      A                      A                      A
 Frequencies --    485.6821               525.2801               549.2583
 Red. masses --      9.6622                 6.8529                 4.8296
 Frc consts  --      1.3429                 1.1141                 0.8585
 IR Inten    --      7.9393                15.9919                 0.5841

                     19                     20                     21
                      A                      A                      A
 Frequencies --    587.8820               662.7467               703.7342
 Red. masses --     14.1528                 6.5261                 5.4132
 Frc consts  --      2.8819                 1.6889                 1.5795
 IR Inten    --    112.1731                 6.0215                 8.5428

                     22                     23                     24
                      A                      A                      A
 Frequencies --    739.0415               769.1031               805.9618
 Red. masses --      6.9506                 1.8422                 2.4311
 Frc consts  --      2.2367                 0.6420                 0.9304
 IR Inten    --     19.7968                65.0866                17.1768

                     25                     26                     27
                      A                      A                      A
 Frequencies --    823.8751               857.3255               911.5891
 Red. masses --     16.6838                 5.0756                 1.3530
 Frc consts  --      6.6722                 2.1980                 0.6624
 IR Inten    --    170.0350                13.4059                 0.6395

                     28                     29                     30
                      A                      A                      A
 Frequencies --    985.3750              1010.6896              1017.3244
 Red. masses --      1.3710                 5.6905                 1.3558
 Frc consts  --      0.7843                 3.4248                 0.8268
 IR Inten    --      2.4347                11.4463                 0.3370

                     31                     32                     33
                      A                      A                      A
 Frequencies --   1069.1383              1089.8699              1152.4782
 Red. masses --      5.6822                 2.5582                 1.5322
 Frc consts  --      3.8268                 1.7903                 1.1991
 IR Inten    --     12.8427                27.4088                 5.1707

                     34                     35                     36
                      A                      A                      A
 Frequencies --   1163.3810              1181.5671              1212.3773
 Red. masses --      1.8370                 1.7930                 2.2805
 Frc consts  --      1.4649                 1.4748                 1.9749
 IR Inten    --     12.2767                29.4557                97.6356

                     37                     38                     39
                      A                      A                      A
 Frequencies --   1212.9736              1230.9030              1301.3984
 Red. masses --      1.7565                 1.7669                 1.4887
 Frc consts  --      1.5227                 1.5773                 1.4856
 IR Inten    --     82.8673                15.2617                47.2744

                     40                     41                     42
                      A                      A                      A
 Frequencies --   1352.4925              1379.2770              1420.1328
 Red. masses --      3.8422                 9.1242                16.4449
 Frc consts  --      4.1410                10.2270                19.5406
 IR Inten    --    386.0262                13.3095               221.6107

                     43                     44                     45
                      A                      A                      A
 Frequencies --   1477.8153              1491.1477              1510.7704
 Red. masses --      1.2834                 2.1421                 1.0513
 Frc consts  --      1.6515                 2.8063                 1.4137
 IR Inten    --     29.9922                10.6737                 8.5556

                     46                     47                     48
                      A                      A                      A
 Frequencies --   1515.2910              1526.3895              1644.4106
 Red. masses --      1.0535                 2.6225                 6.0227
 Frc consts  --      1.4252                 3.5999                 9.5954
 IR Inten    --     10.9380                 6.5377                 7.5827

                     49                     50                     51
                      A                      A                      A
 Frequencies --   1669.3399              1845.6544              3085.2380
 Red. masses --      6.0514                11.9426                 1.0317
 Frc consts  --      9.9356                23.9690                 5.7861
 IR Inten    --      3.8395               230.8262                25.7795

                     52                     53                     54
                      A                      A                      A
 Frequencies --   3173.2313              3216.8522              3218.5764
 Red. masses --      1.1091                 1.1067                 1.0873
 Frc consts  --      6.5798                 6.7472                 6.6360
 IR Inten    --     10.6383                 9.6863                 2.2450

                     55                     56                     57
                      A                      A                      A
 Frequencies --   3232.7355              3243.0492              3253.8023
 Red. masses --      1.0920                 1.0952                 1.0941
 Frc consts  --      6.7237                 6.7865                 6.8249
 IR Inten    --      5.2967                 3.0957                 4.0513

 - Thermochemistry -
 -------------------
 Temperature   298.150 Kelvin.  Pressure   1.00000 Atm.
 Atom     1 has atomic number  8 and mass  15.99491

 Molecular mass:   218.00491 amu.
 Principal axes and moments of inertia in atomic units:
                           1         2         3
     Eigenvalues --  2344.460502567.893824364.66774
           X            0.99474  -0.10241  -0.00146
           Y            0.10242   0.99472   0.00714
           Z            0.00072  -0.00725   0.99997
 This molecule is an asymmetric top.
 Rotational symmetry number  1.
 Warning -- assumption of classical behavior for rotation
           may cause significant error
 Rotational temperatures (Kelvin)      0.03694     0.03373     0.01984
 Rotational constants (GHZ):           0.76979     0.70281     0.41349
 Zero-point vibrational energy     387260.3 (Joules/Mol)
                                   92.55742 (Kcal/Mol)
 Warning -- explicit consideration of  19 degrees of freedom as
           vibrations may cause significant error
 Vibrational temperatures:     70.73   112.85   126.05   157.37   173.42
          (Kelvin)            189.66   281.65   343.28   372.26   414.77
                              451.14   484.13   550.41   584.29   636.97
                              698.79   755.76   790.26   845.83   953.54
                             1012.52  1063.32  1106.57  1159.60  1185.37
                             1233.50  1311.57  1417.73  1454.16  1463.70
                             1538.25  1568.08  1658.16  1673.85  1700.01
                             1744.34  1745.20  1770.99  1872.42  1945.94
                             1984.47  2043.25  2126.25  2145.43  2173.66
                             2180.17  2196.13  2365.94  2401.81  2655.49
                             4438.97  4565.57  4628.33  4630.81  4651.19
                             4666.02  4681.50

 Zero-point correction=                           0.147500 (Hartree/Particle)
 Thermal correction to Energy=                    0.160272
 Thermal correction to Enthalpy=                  0.161216
 Thermal correction to Gibbs Free Energy=         0.107552
 Sum of electronic and zero-point Energies=          -1107.141702
 Sum of electronic and thermal Energies=             -1107.128930
 Sum of electronic and thermal Enthalpies=           -1107.127986
 Sum of electronic and thermal Free Energies=        -1107.181650

                     E (Thermal)             CV                S
                      KCal/Mol        Cal/Mol-Kelvin    Cal/Mol-Kelvin
 Total                  100.572             46.415            112.946
 Electronic               0.000              0.000              0.000
 Translational            0.889              2.981             42.041
 Rotational               0.889              2.981             31.641
 Vibrational             98.795             40.454             39.264
 Vibration     1          0.595              1.978              4.851
 Vibration     2          0.600              1.964              3.930
 Vibration     3          0.601              1.958              3.713
 Vibration     4          0.606              1.942              3.280
 Vibration     5          0.609              1.932              3.092
 Vibration     6          0.612              1.922              2.919
 Vibration     7          0.636              1.846              2.173
 Vibration     8          0.657              1.781              1.813
 Vibration     9          0.668              1.748              1.670
 Vibration    10          0.685              1.696              1.484
 Vibration    11          0.701              1.648              1.343
 Vibration    12          0.717              1.603              1.229
 Vibration    13          0.752              1.507              1.029
 Vibration    14          0.771              1.457              0.940
 Vibration    15          0.802              1.377              0.818
 Vibration    16          0.842              1.282              0.695
 Vibration    17          0.880              1.194              0.598
 Vibration    18          0.905              1.141              0.546
 Vibration    19          0.945              1.058              0.471

 Optimization completed.
    -- Stationary point found.
 Normal termination of Gaussian 16 at Sun Jan 28 15:24:57 2024.
 Gaussian 16:  ES64L-G16RevA.03 25-Dec-2016

 ----------------------------------------------------------------------
 # TD(NStates=10, Root=1) APFD/6-31G* volume pop=NPA density=current Ge
 om=AllCheck Guess=Read
 ----------------------------------------------------------------------

 Structure from the checkpoint file:  "LLQSKDZICCVCEB-UHFFFAOYSA-N_conf_0_2.chk"
 ----------------------------------
 LLQSKDZICCVCEB-UHFFFAOYSA-N_conf_0
 ----------------------------------
 Charge =  0 Multiplicity = 1

                         Standard orientation:
 ---------------------------------------------------------------------
 Center     Atomic      Atomic             Coordinates (Angstroms)
 Number     Number       Type             X           Y           Z
 ---------------------------------------------------------------------
      1          8           0       -0.392068    2.876438    0.372216
      2         16           0        0.319048    1.625822    0.234294
      3          6           0       -0.862745    0.316597   -0.027163
      4          6           0       -2.189907    0.722329   -0.147847
      5          6           0       -3.197590   -0.236101   -0.227933
      6          6           0       -2.878901   -1.589032   -0.151244
      7          6           0       -1.551792   -1.986158   -0.010806
      8          6           0       -0.525037   -1.044727    0.031434
      9          6           0        0.867898   -1.574647    0.147063
     10          8           0        1.709065   -0.877097   -0.616965
     11          6           0        3.094144   -1.185261   -0.453301
     12          8           0        1.159299   -2.541593    0.812049
     13          9           0        1.023769    1.697402   -1.203449
     14          8           0        1.329980    1.220725    1.182558
     15          1           0       -2.424683    1.781593   -0.161081
     16          1           0       -4.231752    0.080621   -0.330817
     17          1           0       -3.664555   -2.338643   -0.193674
     18          1           0       -1.284589   -3.035891    0.066840
     19          1           0        3.402971   -0.952776    0.568616
     20          1           0        3.278857   -2.241560   -0.662754
     21          1           0        3.618441   -0.548892   -1.164884
 ---------------------------------------------------------------------

 SCF Done:  E(RAPFD) =  -1107.28920194     A.U. after    1 cycles

 Excitation energies and oscillator strengths:

 Excited State   1:      Singlet-A      4.7216 eV  262.59 nm  f=0.0239  <S**2>=0.000
      54 -> 57         0.31280
      54 -> 58         0.12531
      56 -> 57         0.59538
      56 -> 59        -0.10626
 This state for optimization and/or second-order correction.
 Total Energy, E(TD-HF/TD-DFT) =  -1107.11568566
 Copying the excited state density for this state as the 1-particle RhoCI density.

 Excited State   2:      Singlet-A      5.1736 eV  239.65 nm  f=0.0222  <S**2>=0.000
      54 -> 57         0.35471
      55 -> 57         0.40979
      55 -> 58         0.25597
      56 -> 57        -0.19519
      56 -> 58         0.29931

 Excited State   3:      Singlet-A      5.6458 eV  219.60 nm  f=0.0746  <S**2>=0.000
      53 -> 57        -0.11128
      54 -> 57         0.45177
      55 -> 57        -0.38187
      55 -> 58         0.14402
      56 -> 57        -0.19119
      56 -> 58        -0.25943

 Excited State   4:      Singlet-A      5.7782 eV  214.57 nm  f=0.0160  <S**2>=0.000
      52 -> 57        -0.10025
      53 -> 57         0.66412
      54 -> 57         0.10532
      56 -> 58        -0.15808

 Excited State   5:      Singlet-A      5.8517 eV  211.88 nm  f=0.0467  <S**2>=0.000
      53 -> 57         0.14916
      54 -> 58         0.41071
      55 -> 57        -0.29617
      56 -> 57        -0.11248
      56 -> 58         0.43395

 Excited State   6:      Singlet-A      6.2408 eV  198.67 nm  f=0.0016  <S**2>=0.000
      51 -> 57        -0.10216
      52 -> 57         0.66510
      53 -> 57         0.11377

 Excited State   7:      Singlet-A      6.4308 eV  192.80 nm  f=0.0173  <S**2>=0.000
      50 -> 57         0.45128
      51 -> 57         0.51160

 Excited State   8:      Singlet-A      6.5563 eV  189.11 nm  f=0.0372  <S**2>=0.000
      50 -> 57         0.11784
      52 -> 57        -0.11207
      53 -> 58         0.61397
      54 -> 58        -0.20343
      55 -> 58         0.14976

 Excited State   9:      Singlet-A      6.5742 eV  188.59 nm  f=0.0179  <S**2>=0.000
      50 -> 57         0.48964
      51 -> 57        -0.41210
      55 -> 58        -0.22202

 Excited State  10:      Singlet-A      6.7016 eV  185.01 nm  f=0.4796  <S**2>=0.000
      50 -> 57        -0.10611
      53 -> 58         0.31956
      54 -> 58         0.38577
      55 -> 57         0.25603
      55 -> 58        -0.24726
      56 -> 57        -0.12912
      56 -> 58        -0.19170
      56 -> 59         0.11895

 The electronic state is 1-A.
 Alpha  occ. eigenvalues --  -89.23960 -24.78568 -19.25122 -19.21736 -19.21723
 Alpha  occ. eigenvalues --  -19.19267 -10.35631 -10.28760 -10.27182 -10.26647
 Alpha  occ. eigenvalues --  -10.26041 -10.25593 -10.25499 -10.25416  -8.21765
 Alpha  occ. eigenvalues --   -6.16703  -6.16370  -6.16268  -1.27815  -1.14371
 Alpha  occ. eigenvalues --   -1.13816  -1.05764  -1.05122  -0.92199  -0.82622
 Alpha  occ. eigenvalues --   -0.81612  -0.75717  -0.71877  -0.66768  -0.64602
 Alpha  occ. eigenvalues --   -0.61011  -0.58557  -0.55477  -0.53738  -0.52557
 Alpha  occ. eigenvalues --   -0.51256  -0.50617  -0.49920  -0.48600  -0.47720
 Alpha  occ. eigenvalues --   -0.45699  -0.45182  -0.44294  -0.42603  -0.41441
 Alpha  occ. eigenvalues --   -0.40313  -0.39806  -0.39220  -0.37405  -0.35523
 Alpha  occ. eigenvalues --   -0.35199  -0.33816  -0.31869  -0.30931  -0.30384
 Alpha  occ. eigenvalues --   -0.28913
 Alpha virt. eigenvalues --   -0.07427  -0.04585   0.02678   0.03117   0.06145
 Alpha virt. eigenvalues --    0.09352   0.10357   0.11517   0.12370   0.12878
 Alpha virt. eigenvalues --    0.14948   0.15717   0.16610   0.17200   0.18016

 Mulliken charges:
               1
     1  O   -0.494758
     2  S    1.287469
     3  C   -0.289929
     4  C   -0.170190
     5  C   -0.175317
     6  C   -0.183334
     7  C   -0.173312
     8  C    0.024672
     9  C    0.578265
    10  O   -0.395427
    11  C   -0.318698
    12  O   -0.269828
    13  F   -0.311516
    14  O   -0.522295
    15  H    0.225160
    16  H    0.176158
    17  H    0.175357
    18  H    0.185968
    19  H    0.223701
    20  H    0.201551
    21  H    0.226303
 Sum of Mulliken charges =  -0.00000

 Dipole moment (field-independent basis, Debye):
    X=              1.2417    Y=             -4.9517    Z=             -1.5350  Tot=              5.3308
 Quadrupole moment (field-independent basis, Debye-Ang):
   XX=            -67.8034   YY=            -88.3274   ZZ=            -89.6995
   XY=             -4.6429   XZ=             -2.6261   YZ=             -0.9572

 Summary of Natural Population Analysis:

                                       Natural Population
                Natural  -----------------------------------------------
    Atom  No    Charge         Core      Valence    Rydberg      Total
 -----------------------------------------------------------------------
      O    1   -0.91652      1.99988     6.89326    0.02338     8.91652
      S    2    2.43210      9.99872     3.36355    0.20563    13.56790
      C    3   -0.40418      1.99860     4.37820    0.02737     6.40418
      C    4   -0.19014      1.99902     4.17454    0.01658     6.19014
      C    5   -0.26901      1.99910     4.25419    0.01572     6.26901
      C    6   -0.26043      1.99911     4.24600    0.01532     6.26043
      C    7   -0.19572      1.99905     4.18265    0.01402     6.19572
      C    8   -0.20275      1.99878     4.18372    0.02024     6.20275
      C    9    0.74701      1.99933     3.21313    0.04053     5.25299
      O   10   -0.45634      1.99975     6.44426    0.01233     8.45634
      C   11   -0.35678      1.99942     4.34221    0.01515     6.35678
      O   12   -0.25007      1.99980     6.23074    0.01952     8.25007
      F   13   -0.50712      1.99997     7.49738    0.00977     9.50712
      O   14   -0.92598      1.99987     6.90270    0.02341     8.92598
      H   15    0.28079      0.00000     0.71808    0.00113     0.71921
      H   16    0.25183      0.00000     0.74747    0.00071     0.74817
      H   17    0.25159      0.00000     0.74770    0.00072     0.74841
      H   18    0.25305      0.00000     0.74630    0.00065     0.74695
      H   19    0.24109      0.00000     0.75770    0.00121     0.75891
      H   20    0.22502      0.00000     0.77390    0.00108     0.77498
      H   21    0.25256      0.00000     0.74699    0.00045     0.74744
 =======================================================================
   * Total *   -0.00000     35.99041    75.54467    0.46492   112.00000

 Normal termination of Gaussian 16 at Sun Jan 28 15:32:41 2024.
